n -t * -s 0  -x 463 -y 315 -Z 0 -z 30  -v circle -c black
n -t * -s 1  -x 188 -y 211 -Z 0 -z 30  -v circle -c black
n -t * -s 2  -x 488 -y 293 -Z 0 -z 30  -v circle -c black
n -t * -s 3  -x 102 -y 46 -Z 0 -z 30  -v circle -c black
n -t * -s 4  -x 228 -y 74 -Z 0 -z 30  -v circle -c black
n -t * -s 5  -x 234 -y 232 -Z 0 -z 30  -v circle -c black
n -t * -s 6  -x 33 -y 299 -Z 0 -z 30  -v circle -c black
n -t * -s 7  -x 444 -y 361 -Z 0 -z 30  -v circle -c black
n -t * -s 8  -x 32 -y 277 -Z 0 -z 30  -v circle -c black
n -t * -s 9  -x 256 -y 253 -Z 0 -z 30  -v circle -c black
V -t * -v 1.0a5 -a 0
W -t * -x 500 -y 400
A -t * -n 1 -p 0 -o 0x7fffffff -c 30 -a 1
A -t * -h 1 -m 1073741823 -s 0
c -t * -i 1 -n red
+ -t 5.000000000 -s 0 -d -1 -p tcp -e 40 -c 2 -a 0 -i 0 -k AGT 
- -t 5.000000000 -s 0 -d -1 -p tcp -e 40 -c 2 -a 0 -i 0 -k AGT
h -t 5.000000000 -s 0 -d -1 -p tcp -e 40 -c 2 -a 0 -i 0 -k AGT
+ -t 5.000000000 -s 1 -d -1 -p tcp -e 40 -c 2 -a 0 -i 1 -k AGT 
- -t 5.000000000 -s 1 -d -1 -p tcp -e 40 -c 2 -a 0 -i 1 -k AGT
h -t 5.000000000 -s 1 -d -1 -p tcp -e 40 -c 2 -a 0 -i 1 -k AGT
+ -t 5.000000000 -s 2 -d -1 -p tcp -e 40 -c 2 -a 0 -i 2 -k AGT 
- -t 5.000000000 -s 2 -d -1 -p tcp -e 40 -c 2 -a 0 -i 2 -k AGT
h -t 5.000000000 -s 2 -d -1 -p tcp -e 40 -c 2 -a 0 -i 2 -k AGT
+ -t 5.000000000 -s 3 -d -1 -p tcp -e 40 -c 2 -a 0 -i 3 -k AGT 
- -t 5.000000000 -s 3 -d -1 -p tcp -e 40 -c 2 -a 0 -i 3 -k AGT
h -t 5.000000000 -s 3 -d -1 -p tcp -e 40 -c 2 -a 0 -i 3 -k AGT
+ -t 5.000000000 -s 4 -d -1 -p tcp -e 40 -c 2 -a 0 -i 4 -k AGT 
- -t 5.000000000 -s 4 -d -1 -p tcp -e 40 -c 2 -a 0 -i 4 -k AGT
h -t 5.000000000 -s 4 -d -1 -p tcp -e 40 -c 2 -a 0 -i 4 -k AGT
+ -t 5.000000000 -s 0 -d -1 -p AODV -e 48 -c 2 -a 0 -i 0 -k RTR 
- -t 5.000000000 -s 0 -d -1 -p AODV -e 48 -c 2 -a 0 -i 0 -k RTR
h -t 5.000000000 -s 0 -d -1 -p AODV -e 48 -c 2 -a 0 -i 0 -k RTR
+ -t 5.000000000 -s 1 -d -1 -p AODV -e 48 -c 2 -a 0 -i 0 -k RTR 
- -t 5.000000000 -s 1 -d -1 -p AODV -e 48 -c 2 -a 0 -i 0 -k RTR
h -t 5.000000000 -s 1 -d -1 -p AODV -e 48 -c 2 -a 0 -i 0 -k RTR
+ -t 5.000000000 -s 2 -d -1 -p AODV -e 48 -c 2 -a 0 -i 0 -k RTR 
- -t 5.000000000 -s 2 -d -1 -p AODV -e 48 -c 2 -a 0 -i 0 -k RTR
h -t 5.000000000 -s 2 -d -1 -p AODV -e 48 -c 2 -a 0 -i 0 -k RTR
+ -t 5.000000000 -s 3 -d -1 -p AODV -e 48 -c 2 -a 0 -i 0 -k RTR 
- -t 5.000000000 -s 3 -d -1 -p AODV -e 48 -c 2 -a 0 -i 0 -k RTR
h -t 5.000000000 -s 3 -d -1 -p AODV -e 48 -c 2 -a 0 -i 0 -k RTR
+ -t 5.000000000 -s 4 -d -1 -p AODV -e 48 -c 2 -a 0 -i 0 -k RTR 
- -t 5.000000000 -s 4 -d -1 -p AODV -e 48 -c 2 -a 0 -i 0 -k RTR
h -t 5.000000000 -s 4 -d -1 -p AODV -e 48 -c 2 -a 0 -i 0 -k RTR
r -t 5.000948111 -s 2 -d -1 -p AODV -e 48 -c 2 -a 0 -i 0 -k RTR
r -t 5.000948166 -s 7 -d -1 -p AODV -e 48 -c 2 -a 0 -i 0 -k RTR
r -t 5.000948720 -s 9 -d -1 -p AODV -e 48 -c 2 -a 0 -i 0 -k RTR
+ -t 5.000948720 -s 9 -d 0 -p AODV -e 44 -c 2 -a 0 -i 0 -k RTR 
- -t 5.000948720 -s 9 -d 0 -p AODV -e 44 -c 2 -a 0 -i 0 -k RTR
h -t 5.000948720 -s 9 -d 0 -p AODV -e 44 -c 2 -a 0 -i 0 -k RTR
r -t 5.000948812 -s 5 -d -1 -p AODV -e 48 -c 2 -a 0 -i 0 -k RTR
+ -t 5.001376758 -s 5 -d -1 -p AODV -e 48 -c 2 -a 0 -i 0 -k RTR 
- -t 5.001376758 -s 5 -d -1 -p AODV -e 48 -c 2 -a 0 -i 0 -k RTR
h -t 5.001376758 -s 5 -d -1 -p AODV -e 48 -c 2 -a 0 -i 0 -k RTR
+ -t 5.002589620 -s 7 -d -1 -p AODV -e 48 -c 2 -a 0 -i 0 -k RTR 
- -t 5.002589620 -s 7 -d -1 -p AODV -e 48 -c 2 -a 0 -i 0 -k RTR
h -t 5.002589620 -s 7 -d -1 -p AODV -e 48 -c 2 -a 0 -i 0 -k RTR
r -t 5.002795616 -s 0 -d -1 -p AODV -e 48 -c 2 -a 0 -i 0 -k RTR
r -t 5.002795775 -s 7 -d -1 -p AODV -e 48 -c 2 -a 0 -i 0 -k RTR
+ -t 5.002795775 -s 7 -d 2 -p AODV -e 44 -c 2 -a 0 -i 0 -k RTR 
- -t 5.002795775 -s 7 -d 2 -p AODV -e 44 -c 2 -a 0 -i 0 -k RTR
h -t 5.002795775 -s 7 -d 2 -p AODV -e 44 -c 2 -a 0 -i 0 -k RTR
r -t 5.002796290 -s 9 -d -1 -p AODV -e 48 -c 2 -a 0 -i 0 -k RTR
+ -t 5.003737005 -s 0 -d -1 -p AODV -e 48 -c 2 -a 0 -i 0 -k RTR 
- -t 5.003737005 -s 0 -d -1 -p AODV -e 48 -c 2 -a 0 -i 0 -k RTR
h -t 5.003737005 -s 0 -d -1 -p AODV -e 48 -c 2 -a 0 -i 0 -k RTR
r -t 5.005584665 -s 0 -d -1 -p AODV -e 48 -c 2 -a 0 -i 0 -k RTR
r -t 5.005584770 -s 2 -d -1 -p AODV -e 48 -c 2 -a 0 -i 0 -k RTR
r -t 5.005585222 -s 9 -d -1 -p AODV -e 48 -c 2 -a 0 -i 0 -k RTR
r -t 5.005585321 -s 5 -d -1 -p AODV -e 48 -c 2 -a 0 -i 0 -k RTR
+ -t 5.007189383 -s 0 -d 9 -p tcp -e 40 -c 2 -a 0 -i 0 -k RTR 
- -t 5.007189383 -s 0 -d 9 -p tcp -e 40 -c 2 -a 0 -i 0 -k RTR
h -t 5.007189383 -s 0 -d 9 -p tcp -e 40 -c 2 -a 0 -i 0 -k RTR
r -t 5.008441494 -s 2 -d -1 -p AODV -e 48 -c 2 -a 0 -i 0 -k RTR
r -t 5.008441549 -s 7 -d -1 -p AODV -e 48 -c 2 -a 0 -i 0 -k RTR
r -t 5.008442103 -s 9 -d -1 -p AODV -e 48 -c 2 -a 0 -i 0 -k RTR
r -t 5.008442195 -s 5 -d -1 -p AODV -e 48 -c 2 -a 0 -i 0 -k RTR
+ -t 5.009311346 -s 2 -d -1 -p AODV -e 48 -c 2 -a 0 -i 0 -k RTR 
- -t 5.009311346 -s 2 -d -1 -p AODV -e 48 -c 2 -a 0 -i 0 -k RTR
h -t 5.009311346 -s 2 -d -1 -p AODV -e 48 -c 2 -a 0 -i 0 -k RTR
r -t 5.010218472 -s 9 -d -1 -p AODV -e 48 -c 2 -a 0 -i 0 -k RTR
r -t 5.010218539 -s 1 -d -1 -p AODV -e 48 -c 2 -a 0 -i 0 -k RTR
r -t 5.010218898 -s 4 -d -1 -p AODV -e 48 -c 2 -a 0 -i 0 -k RTR
r -t 5.010219060 -s 8 -d -1 -p AODV -e 48 -c 2 -a 0 -i 0 -k RTR
r -t 5.010219077 -s 6 -d -1 -p AODV -e 48 -c 2 -a 0 -i 0 -k RTR
r -t 5.010219131 -s 3 -d -1 -p AODV -e 48 -c 2 -a 0 -i 0 -k RTR
r -t 5.010219183 -s 0 -d -1 -p AODV -e 48 -c 2 -a 0 -i 0 -k RTR
r -t 5.010219192 -s 7 -d -1 -p AODV -e 48 -c 2 -a 0 -i 0 -k RTR
+ -t 5.010866575 -s 9 -d -1 -p AODV -e 48 -c 2 -a 0 -i 0 -k RTR 
- -t 5.010866575 -s 9 -d -1 -p AODV -e 48 -c 2 -a 0 -i 0 -k RTR
h -t 5.010866575 -s 9 -d -1 -p AODV -e 48 -c 2 -a 0 -i 0 -k RTR
r -t 5.011216708 -s 5 -d -1 -p AODV -e 48 -c 2 -a 0 -i 0 -k RTR
r -t 5.011216806 -s 9 -d -1 -p AODV -e 48 -c 2 -a 0 -i 0 -k RTR
r -t 5.011217015 -s 4 -d -1 -p AODV -e 48 -c 2 -a 0 -i 0 -k RTR
r -t 5.011217104 -s 8 -d -1 -p AODV -e 48 -c 2 -a 0 -i 0 -k RTR
+ -t 5.011217104 -s 8 -d 1 -p AODV -e 44 -c 2 -a 0 -i 0 -k RTR 
- -t 5.011217104 -s 8 -d 1 -p AODV -e 44 -c 2 -a 0 -i 0 -k RTR
h -t 5.011217104 -s 8 -d 1 -p AODV -e 44 -c 2 -a 0 -i 0 -k RTR
r -t 5.011217133 -s 6 -d -1 -p AODV -e 48 -c 2 -a 0 -i 0 -k RTR
r -t 5.011217159 -s 3 -d -1 -p AODV -e 48 -c 2 -a 0 -i 0 -k RTR
r -t 5.012255590 -s 4 -d -1 -p AODV -e 48 -c 2 -a 0 -i 0 -k RTR
r -t 5.012255780 -s 1 -d -1 -p AODV -e 48 -c 2 -a 0 -i 0 -k RTR
r -t 5.012255920 -s 5 -d -1 -p AODV -e 48 -c 2 -a 0 -i 0 -k RTR
r -t 5.012255964 -s 8 -d -1 -p AODV -e 48 -c 2 -a 0 -i 0 -k RTR
+ -t 5.012308692 -s 5 -d -1 -p AODV -e 48 -c 2 -a 0 -i 0 -k RTR 
- -t 5.012308692 -s 5 -d -1 -p AODV -e 48 -c 2 -a 0 -i 0 -k RTR
h -t 5.012308692 -s 5 -d -1 -p AODV -e 48 -c 2 -a 0 -i 0 -k RTR
+ -t 5.012363863 -s 1 -d -1 -p AODV -e 48 -c 2 -a 0 -i 0 -k RTR 
- -t 5.012363863 -s 1 -d -1 -p AODV -e 48 -c 2 -a 0 -i 0 -k RTR
h -t 5.012363863 -s 1 -d -1 -p AODV -e 48 -c 2 -a 0 -i 0 -k RTR
+ -t 5.012390492 -s 4 -d -1 -p AODV -e 48 -c 2 -a 0 -i 0 -k RTR 
- -t 5.012390492 -s 4 -d -1 -p AODV -e 48 -c 2 -a 0 -i 0 -k RTR
h -t 5.012390492 -s 4 -d -1 -p AODV -e 48 -c 2 -a 0 -i 0 -k RTR
+ -t 5.012631317 -s 8 -d -1 -p AODV -e 48 -c 2 -a 0 -i 0 -k RTR 
- -t 5.012631317 -s 8 -d -1 -p AODV -e 48 -c 2 -a 0 -i 0 -k RTR
h -t 5.012631317 -s 8 -d -1 -p AODV -e 48 -c 2 -a 0 -i 0 -k RTR
+ -t 5.012839616 -s 4 -d -1 -p AODV -e 48 -c 2 -a 0 -i 0 -k RTR 
- -t 5.012839616 -s 4 -d -1 -p AODV -e 48 -c 2 -a 0 -i 0 -k RTR
h -t 5.012839616 -s 4 -d -1 -p AODV -e 48 -c 2 -a 0 -i 0 -k RTR
+ -t 5.013090667 -s 4 -d -1 -p AODV -e 48 -c 2 -a 0 -i 0 -k RTR 
- -t 5.013090667 -s 4 -d -1 -p AODV -e 48 -c 2 -a 0 -i 0 -k RTR
h -t 5.013090667 -s 4 -d -1 -p AODV -e 48 -c 2 -a 0 -i 0 -k RTR
+ -t 5.013103354 -s 5 -d -1 -p AODV -e 48 -c 2 -a 0 -i 0 -k RTR 
- -t 5.013103354 -s 5 -d -1 -p AODV -e 48 -c 2 -a 0 -i 0 -k RTR
h -t 5.013103354 -s 5 -d -1 -p AODV -e 48 -c 2 -a 0 -i 0 -k RTR
r -t 5.013214020 -s 3 -d -1 -p AODV -e 48 -c 2 -a 0 -i 0 -k RTR
r -t 5.013214065 -s 1 -d -1 -p AODV -e 48 -c 2 -a 0 -i 0 -k RTR
r -t 5.013214117 -s 5 -d -1 -p AODV -e 48 -c 2 -a 0 -i 0 -k RTR
+ -t 5.013214117 -s 5 -d 4 -p AODV -e 44 -c 2 -a 0 -i 0 -k RTR 
- -t 5.013214117 -s 5 -d 4 -p AODV -e 44 -c 2 -a 0 -i 0 -k RTR
h -t 5.013214117 -s 5 -d 4 -p AODV -e 44 -c 2 -a 0 -i 0 -k RTR
r -t 5.013214194 -s 9 -d -1 -p AODV -e 48 -c 2 -a 0 -i 0 -k RTR
r -t 5.014292020 -s 3 -d -1 -p AODV -e 48 -c 2 -a 0 -i 0 -k RTR
r -t 5.014292065 -s 1 -d -1 -p AODV -e 48 -c 2 -a 0 -i 0 -k RTR
r -t 5.014292117 -s 5 -d -1 -p AODV -e 48 -c 2 -a 0 -i 0 -k RTR
r -t 5.014292194 -s 9 -d -1 -p AODV -e 48 -c 2 -a 0 -i 0 -k RTR
r -t 5.015230295 -s 5 -d -1 -p AODV -e 48 -c 2 -a 0 -i 0 -k RTR
r -t 5.015230460 -s 1 -d -1 -p AODV -e 48 -c 2 -a 0 -i 0 -k RTR
r -t 5.015230797 -s 4 -d -1 -p AODV -e 48 -c 2 -a 0 -i 0 -k RTR
r -t 5.015230914 -s 0 -d -1 -p AODV -e 48 -c 2 -a 0 -i 0 -k RTR
r -t 5.015230916 -s 7 -d -1 -p AODV -e 48 -c 2 -a 0 -i 0 -k RTR
r -t 5.015230944 -s 8 -d -1 -p AODV -e 48 -c 2 -a 0 -i 0 -k RTR
r -t 5.015230953 -s 6 -d -1 -p AODV -e 48 -c 2 -a 0 -i 0 -k RTR
r -t 5.015230978 -s 2 -d -1 -p AODV -e 48 -c 2 -a 0 -i 0 -k RTR
+ -t 5.015258881 -s 9 -d -1 -p AODV -e 48 -c 2 -a 0 -i 0 -k RTR 
- -t 5.015258881 -s 9 -d -1 -p AODV -e 48 -c 2 -a 0 -i 0 -k RTR
h -t 5.015258881 -s 9 -d -1 -p AODV -e 48 -c 2 -a 0 -i 0 -k RTR
+ -t 5.015506519 -s 8 -d -1 -p AODV -e 48 -c 2 -a 0 -i 0 -k RTR 
- -t 5.015506519 -s 8 -d -1 -p AODV -e 48 -c 2 -a 0 -i 0 -k RTR
h -t 5.015506519 -s 8 -d -1 -p AODV -e 48 -c 2 -a 0 -i 0 -k RTR
+ -t 5.015612592 -s 8 -d -1 -p AODV -e 48 -c 2 -a 0 -i 0 -k RTR 
- -t 5.015612592 -s 8 -d -1 -p AODV -e 48 -c 2 -a 0 -i 0 -k RTR
h -t 5.015612592 -s 8 -d -1 -p AODV -e 48 -c 2 -a 0 -i 0 -k RTR
+ -t 5.015783957 -s 3 -d -1 -p AODV -e 48 -c 2 -a 0 -i 0 -k RTR 
- -t 5.015783957 -s 3 -d -1 -p AODV -e 48 -c 2 -a 0 -i 0 -k RTR
h -t 5.015783957 -s 3 -d -1 -p AODV -e 48 -c 2 -a 0 -i 0 -k RTR
r -t 5.016907018 -s 6 -d -1 -p AODV -e 48 -c 2 -a 0 -i 0 -k RTR
+ -t 5.016907018 -s 6 -d 8 -p AODV -e 44 -c 2 -a 0 -i 0 -k RTR 
- -t 5.016907018 -s 6 -d 8 -p AODV -e 44 -c 2 -a 0 -i 0 -k RTR
h -t 5.016907018 -s 6 -d 8 -p AODV -e 44 -c 2 -a 0 -i 0 -k RTR
r -t 5.016907509 -s 1 -d -1 -p AODV -e 48 -c 2 -a 0 -i 0 -k RTR
r -t 5.016907634 -s 5 -d -1 -p AODV -e 48 -c 2 -a 0 -i 0 -k RTR
r -t 5.016907695 -s 9 -d -1 -p AODV -e 48 -c 2 -a 0 -i 0 -k RTR
r -t 5.016907749 -s 3 -d -1 -p AODV -e 48 -c 2 -a 0 -i 0 -k RTR
+ -t 5.016992620 -s 3 -d -1 -p AODV -e 48 -c 2 -a 0 -i 0 -k RTR 
- -t 5.016992620 -s 3 -d -1 -p AODV -e 48 -c 2 -a 0 -i 0 -k RTR
h -t 5.016992620 -s 3 -d -1 -p AODV -e 48 -c 2 -a 0 -i 0 -k RTR
+ -t 5.018206194 -s 5 -d -1 -p AODV -e 48 -c 2 -a 0 -i 0 -k RTR 
- -t 5.018206194 -s 5 -d -1 -p AODV -e 48 -c 2 -a 0 -i 0 -k RTR
h -t 5.018206194 -s 5 -d -1 -p AODV -e 48 -c 2 -a 0 -i 0 -k RTR
+ -t 5.018504123 -s 6 -d -1 -p AODV -e 48 -c 2 -a 0 -i 0 -k RTR 
- -t 5.018504123 -s 6 -d -1 -p AODV -e 48 -c 2 -a 0 -i 0 -k RTR
h -t 5.018504123 -s 6 -d -1 -p AODV -e 48 -c 2 -a 0 -i 0 -k RTR
+ -t 5.018616791 -s 1 -d -1 -p AODV -e 48 -c 2 -a 0 -i 0 -k RTR 
- -t 5.018616791 -s 1 -d -1 -p AODV -e 48 -c 2 -a 0 -i 0 -k RTR
h -t 5.018616791 -s 1 -d -1 -p AODV -e 48 -c 2 -a 0 -i 0 -k RTR
+ -t 5.018662413 -s 9 -d -1 -p AODV -e 48 -c 2 -a 0 -i 0 -k RTR 
- -t 5.018662413 -s 9 -d -1 -p AODV -e 48 -c 2 -a 0 -i 0 -k RTR
h -t 5.018662413 -s 9 -d -1 -p AODV -e 48 -c 2 -a 0 -i 0 -k RTR
+ -t 5.018730142 -s 6 -d -1 -p AODV -e 48 -c 2 -a 0 -i 0 -k RTR 
- -t 5.018730142 -s 6 -d -1 -p AODV -e 48 -c 2 -a 0 -i 0 -k RTR
h -t 5.018730142 -s 6 -d -1 -p AODV -e 48 -c 2 -a 0 -i 0 -k RTR
+ -t 5.019487670 -s 4 -d -1 -p AODV -e 48 -c 2 -a 0 -i 0 -k RTR 
- -t 5.019487670 -s 4 -d -1 -p AODV -e 48 -c 2 -a 0 -i 0 -k RTR
h -t 5.019487670 -s 4 -d -1 -p AODV -e 48 -c 2 -a 0 -i 0 -k RTR
+ -t 5.020091569 -s 6 -d -1 -p AODV -e 48 -c 2 -a 0 -i 0 -k RTR 
- -t 5.020091569 -s 6 -d -1 -p AODV -e 48 -c 2 -a 0 -i 0 -k RTR
h -t 5.020091569 -s 6 -d -1 -p AODV -e 48 -c 2 -a 0 -i 0 -k RTR
+ -t 5.020200798 -s 1 -d -1 -p AODV -e 48 -c 2 -a 0 -i 0 -k RTR 
- -t 5.020200798 -s 1 -d -1 -p AODV -e 48 -c 2 -a 0 -i 0 -k RTR
h -t 5.020200798 -s 1 -d -1 -p AODV -e 48 -c 2 -a 0 -i 0 -k RTR
+ -t 5.020679809 -s 3 -d -1 -p AODV -e 48 -c 2 -a 0 -i 0 -k RTR 
- -t 5.020679809 -s 3 -d -1 -p AODV -e 48 -c 2 -a 0 -i 0 -k RTR
h -t 5.020679809 -s 3 -d -1 -p AODV -e 48 -c 2 -a 0 -i 0 -k RTR
+ -t 5.020778857 -s 1 -d -1 -p AODV -e 48 -c 2 -a 0 -i 0 -k RTR 
- -t 5.020778857 -s 1 -d -1 -p AODV -e 48 -c 2 -a 0 -i 0 -k RTR
h -t 5.020778857 -s 1 -d -1 -p AODV -e 48 -c 2 -a 0 -i 0 -k RTR
r -t 5.021037570 -s 6 -d -1 -p AODV -e 48 -c 2 -a 0 -i 0 -k RTR
r -t 5.021038061 -s 1 -d -1 -p AODV -e 48 -c 2 -a 0 -i 0 -k RTR
r -t 5.021038187 -s 5 -d -1 -p AODV -e 48 -c 2 -a 0 -i 0 -k RTR
r -t 5.021038248 -s 9 -d -1 -p AODV -e 48 -c 2 -a 0 -i 0 -k RTR
r -t 5.021038301 -s 3 -d -1 -p AODV -e 48 -c 2 -a 0 -i 0 -k RTR
+ -t 5.021951870 -s 3 -d -1 -p AODV -e 48 -c 2 -a 0 -i 0 -k RTR 
- -t 5.021951870 -s 3 -d -1 -p AODV -e 48 -c 2 -a 0 -i 0 -k RTR
h -t 5.021951870 -s 3 -d -1 -p AODV -e 48 -c 2 -a 0 -i 0 -k RTR
r -t 5.023259538 -s 4 -d -1 -p AODV -e 48 -c 2 -a 0 -i 0 -k RTR
r -t 5.025540182 -s 5 -d -1 -p AODV -e 48 -c 2 -a 0 -i 0 -k RTR
r -t 5.025540280 -s 9 -d -1 -p AODV -e 48 -c 2 -a 0 -i 0 -k RTR
r -t 5.025540489 -s 4 -d -1 -p AODV -e 48 -c 2 -a 0 -i 0 -k RTR
r -t 5.025540578 -s 8 -d -1 -p AODV -e 48 -c 2 -a 0 -i 0 -k RTR
r -t 5.025540608 -s 6 -d -1 -p AODV -e 48 -c 2 -a 0 -i 0 -k RTR
r -t 5.025540634 -s 3 -d -1 -p AODV -e 48 -c 2 -a 0 -i 0 -k RTR
+ -t 5.026375857 -s 9 -d -1 -p AODV -e 48 -c 2 -a 0 -i 0 -k RTR 
- -t 5.026375857 -s 9 -d -1 -p AODV -e 48 -c 2 -a 0 -i 0 -k RTR
h -t 5.026375857 -s 9 -d -1 -p AODV -e 48 -c 2 -a 0 -i 0 -k RTR
+ -t 5.027124272 -s 1 -d 8 -p tcp -e 40 -c 2 -a 0 -i 1 -k RTR 
- -t 5.027124272 -s 1 -d 8 -p tcp -e 40 -c 2 -a 0 -i 1 -k RTR
h -t 5.027124272 -s 1 -d 8 -p tcp -e 40 -c 2 -a 0 -i 1 -k RTR
r -t 5.028357323 -s 4 -d -1 -p AODV -e 48 -c 2 -a 0 -i 0 -k RTR
r -t 5.028357513 -s 1 -d -1 -p AODV -e 48 -c 2 -a 0 -i 0 -k RTR
r -t 5.028357653 -s 5 -d -1 -p AODV -e 48 -c 2 -a 0 -i 0 -k RTR
r -t 5.028357697 -s 8 -d -1 -p AODV -e 48 -c 2 -a 0 -i 0 -k RTR
r -t 5.029295770 -s 6 -d -1 -p AODV -e 48 -c 2 -a 0 -i 0 -k RTR
r -t 5.029296262 -s 1 -d -1 -p AODV -e 48 -c 2 -a 0 -i 0 -k RTR
r -t 5.029296387 -s 5 -d -1 -p AODV -e 48 -c 2 -a 0 -i 0 -k RTR
r -t 5.029296448 -s 9 -d -1 -p AODV -e 48 -c 2 -a 0 -i 0 -k RTR
r -t 5.029296502 -s 3 -d -1 -p AODV -e 48 -c 2 -a 0 -i 0 -k RTR
r -t 5.030274488 -s 9 -d -1 -p AODV -e 48 -c 2 -a 0 -i 0 -k RTR
r -t 5.030274555 -s 1 -d -1 -p AODV -e 48 -c 2 -a 0 -i 0 -k RTR
r -t 5.030274914 -s 4 -d -1 -p AODV -e 48 -c 2 -a 0 -i 0 -k RTR
r -t 5.030275077 -s 8 -d -1 -p AODV -e 48 -c 2 -a 0 -i 0 -k RTR
r -t 5.030275093 -s 6 -d -1 -p AODV -e 48 -c 2 -a 0 -i 0 -k RTR
r -t 5.030275147 -s 3 -d -1 -p AODV -e 48 -c 2 -a 0 -i 0 -k RTR
r -t 5.030275199 -s 0 -d -1 -p AODV -e 48 -c 2 -a 0 -i 0 -k RTR
r -t 5.030275208 -s 7 -d -1 -p AODV -e 48 -c 2 -a 0 -i 0 -k RTR
r -t 5.031192724 -s 5 -d -1 -p AODV -e 48 -c 2 -a 0 -i 0 -k RTR
r -t 5.031192822 -s 9 -d -1 -p AODV -e 48 -c 2 -a 0 -i 0 -k RTR
r -t 5.031193031 -s 4 -d -1 -p AODV -e 48 -c 2 -a 0 -i 0 -k RTR
r -t 5.031193120 -s 8 -d -1 -p AODV -e 48 -c 2 -a 0 -i 0 -k RTR
r -t 5.031193149 -s 6 -d -1 -p AODV -e 48 -c 2 -a 0 -i 0 -k RTR
r -t 5.031193176 -s 3 -d -1 -p AODV -e 48 -c 2 -a 0 -i 0 -k RTR
r -t 5.032764249 -s 8 -d 8 -p tcp -e 40 -c 2 -a 0 -i 1 -k AGT
+ -t 5.032764249 -s 8 -d -1 -p ack -e 40 -c 2 -a 0 -i 5 -k AGT 
- -t 5.032764249 -s 8 -d -1 -p ack -e 40 -c 2 -a 0 -i 5 -k AGT
h -t 5.032764249 -s 8 -d -1 -p ack -e 40 -c 2 -a 0 -i 5 -k AGT
+ -t 5.032764249 -s 8 -d 1 -p ack -e 40 -c 2 -a 0 -i 5 -k RTR 
- -t 5.032764249 -s 8 -d 1 -p ack -e 40 -c 2 -a 0 -i 5 -k RTR
h -t 5.032764249 -s 8 -d 1 -p ack -e 40 -c 2 -a 0 -i 5 -k RTR
r -t 5.034017040 -s 9 -d -1 -p AODV -e 48 -c 2 -a 0 -i 0 -k RTR
r -t 5.034017108 -s 1 -d -1 -p AODV -e 48 -c 2 -a 0 -i 0 -k RTR
r -t 5.034017466 -s 4 -d -1 -p AODV -e 48 -c 2 -a 0 -i 0 -k RTR
r -t 5.034017629 -s 8 -d -1 -p AODV -e 48 -c 2 -a 0 -i 0 -k RTR
r -t 5.034017645 -s 6 -d -1 -p AODV -e 48 -c 2 -a 0 -i 0 -k RTR
r -t 5.034017699 -s 3 -d -1 -p AODV -e 48 -c 2 -a 0 -i 0 -k RTR
r -t 5.034017751 -s 0 -d -1 -p AODV -e 48 -c 2 -a 0 -i 0 -k RTR
r -t 5.034017761 -s 7 -d -1 -p AODV -e 48 -c 2 -a 0 -i 0 -k RTR
+ -t 5.034753735 -s 6 -d -1 -p AODV -e 48 -c 2 -a 0 -i 0 -k RTR 
- -t 5.034753735 -s 6 -d -1 -p AODV -e 48 -c 2 -a 0 -i 0 -k RTR
h -t 5.034753735 -s 6 -d -1 -p AODV -e 48 -c 2 -a 0 -i 0 -k RTR
r -t 5.034995896 -s 3 -d -1 -p AODV -e 48 -c 2 -a 0 -i 0 -k RTR
r -t 5.034995942 -s 1 -d -1 -p AODV -e 48 -c 2 -a 0 -i 0 -k RTR
r -t 5.034995993 -s 5 -d -1 -p AODV -e 48 -c 2 -a 0 -i 0 -k RTR
r -t 5.034996070 -s 9 -d -1 -p AODV -e 48 -c 2 -a 0 -i 0 -k RTR
r -t 5.035914327 -s 4 -d -1 -p AODV -e 48 -c 2 -a 0 -i 0 -k RTR
r -t 5.035914517 -s 1 -d -1 -p AODV -e 48 -c 2 -a 0 -i 0 -k RTR
r -t 5.035914657 -s 5 -d -1 -p AODV -e 48 -c 2 -a 0 -i 0 -k RTR
r -t 5.035914701 -s 8 -d -1 -p AODV -e 48 -c 2 -a 0 -i 0 -k RTR
r -t 5.037092757 -s 3 -d -1 -p AODV -e 48 -c 2 -a 0 -i 0 -k RTR
r -t 5.037092802 -s 1 -d -1 -p AODV -e 48 -c 2 -a 0 -i 0 -k RTR
r -t 5.037092854 -s 5 -d -1 -p AODV -e 48 -c 2 -a 0 -i 0 -k RTR
r -t 5.037092931 -s 9 -d -1 -p AODV -e 48 -c 2 -a 0 -i 0 -k RTR
+ -t 5.039213239 -s 8 -d -1 -p AODV -e 48 -c 2 -a 0 -i 0 -k RTR 
- -t 5.039213239 -s 8 -d -1 -p AODV -e 48 -c 2 -a 0 -i 0 -k RTR
h -t 5.039213239 -s 8 -d -1 -p AODV -e 48 -c 2 -a 0 -i 0 -k RTR
r -t 5.039967375 -s 1 -d 1 -p ack -e 40 -c 2 -a 0 -i 5 -k AGT
+ -t 5.039967375 -s 1 -d -1 -p tcp -e 1040 -c 2 -a 0 -i 6 -k AGT 
- -t 5.039967375 -s 1 -d -1 -p tcp -e 1040 -c 2 -a 0 -i 6 -k AGT
h -t 5.039967375 -s 1 -d -1 -p tcp -e 1040 -c 2 -a 0 -i 6 -k AGT
+ -t 5.039967375 -s 1 -d -1 -p tcp -e 1040 -c 2 -a 0 -i 7 -k AGT 
- -t 5.039967375 -s 1 -d -1 -p tcp -e 1040 -c 2 -a 0 -i 7 -k AGT
h -t 5.039967375 -s 1 -d -1 -p tcp -e 1040 -c 2 -a 0 -i 7 -k AGT
+ -t 5.039967375 -s 1 -d 8 -p tcp -e 1040 -c 2 -a 0 -i 6 -k RTR 
- -t 5.039967375 -s 1 -d 8 -p tcp -e 1040 -c 2 -a 0 -i 6 -k RTR
h -t 5.039967375 -s 1 -d 8 -p tcp -e 1040 -c 2 -a 0 -i 6 -k RTR
+ -t 5.039967375 -s 1 -d 8 -p tcp -e 1040 -c 2 -a 0 -i 7 -k RTR 
- -t 5.039967375 -s 1 -d 8 -p tcp -e 1040 -c 2 -a 0 -i 7 -k RTR
h -t 5.039967375 -s 1 -d 8 -p tcp -e 1040 -c 2 -a 0 -i 7 -k RTR
+ -t 5.040653020 -s 7 -d -1 -p AODV -e 48 -c 2 -a 0 -i 0 -k RTR 
- -t 5.040653020 -s 7 -d -1 -p AODV -e 48 -c 2 -a 0 -i 0 -k RTR
h -t 5.040653020 -s 7 -d -1 -p AODV -e 48 -c 2 -a 0 -i 0 -k RTR
+ -t 5.041855501 -s 0 -d -1 -p AODV -e 48 -c 2 -a 0 -i 0 -k RTR 
- -t 5.041855501 -s 0 -d -1 -p AODV -e 48 -c 2 -a 0 -i 0 -k RTR
h -t 5.041855501 -s 0 -d -1 -p AODV -e 48 -c 2 -a 0 -i 0 -k RTR
r -t 5.049873069 -s 8 -d 8 -p tcp -e 1040 -c 2 -a 0 -i 6 -k AGT
+ -t 5.049873069 -s 8 -d -1 -p ack -e 40 -c 2 -a 0 -i 8 -k AGT 
- -t 5.049873069 -s 8 -d -1 -p ack -e 40 -c 2 -a 0 -i 8 -k AGT
h -t 5.049873069 -s 8 -d -1 -p ack -e 40 -c 2 -a 0 -i 8 -k AGT
+ -t 5.049873069 -s 8 -d 1 -p ack -e 40 -c 2 -a 0 -i 8 -k RTR 
- -t 5.049873069 -s 8 -d 1 -p ack -e 40 -c 2 -a 0 -i 8 -k RTR
h -t 5.049873069 -s 8 -d 1 -p ack -e 40 -c 2 -a 0 -i 8 -k RTR
r -t 5.051185922 -s 5 -d -1 -p AODV -e 48 -c 2 -a 0 -i 0 -k RTR
r -t 5.051186087 -s 1 -d -1 -p AODV -e 48 -c 2 -a 0 -i 0 -k RTR
r -t 5.051186424 -s 4 -d -1 -p AODV -e 48 -c 2 -a 0 -i 0 -k RTR
r -t 5.051186540 -s 0 -d -1 -p AODV -e 48 -c 2 -a 0 -i 0 -k RTR
r -t 5.051186543 -s 7 -d -1 -p AODV -e 48 -c 2 -a 0 -i 0 -k RTR
r -t 5.051186571 -s 8 -d -1 -p AODV -e 48 -c 2 -a 0 -i 0 -k RTR
r -t 5.051186579 -s 6 -d -1 -p AODV -e 48 -c 2 -a 0 -i 0 -k RTR
r -t 5.051186605 -s 2 -d -1 -p AODV -e 48 -c 2 -a 0 -i 0 -k RTR
+ -t 5.051514528 -s 2 -d -1 -p AODV -e 48 -c 2 -a 0 -i 0 -k RTR 
- -t 5.051514528 -s 2 -d -1 -p AODV -e 48 -c 2 -a 0 -i 0 -k RTR
h -t 5.051514528 -s 2 -d -1 -p AODV -e 48 -c 2 -a 0 -i 0 -k RTR
r -t 5.052124645 -s 6 -d -1 -p AODV -e 48 -c 2 -a 0 -i 0 -k RTR
r -t 5.052125136 -s 1 -d -1 -p AODV -e 48 -c 2 -a 0 -i 0 -k RTR
r -t 5.052125261 -s 5 -d -1 -p AODV -e 48 -c 2 -a 0 -i 0 -k RTR
r -t 5.052125322 -s 9 -d -1 -p AODV -e 48 -c 2 -a 0 -i 0 -k RTR
r -t 5.052125376 -s 3 -d -1 -p AODV -e 48 -c 2 -a 0 -i 0 -k RTR
r -t 5.061656830 -s 8 -d 8 -p tcp -e 1040 -c 2 -a 0 -i 7 -k AGT
+ -t 5.061656830 -s 8 -d -1 -p ack -e 40 -c 2 -a 0 -i 9 -k AGT 
- -t 5.061656830 -s 8 -d -1 -p ack -e 40 -c 2 -a 0 -i 9 -k AGT
h -t 5.061656830 -s 8 -d -1 -p ack -e 40 -c 2 -a 0 -i 9 -k AGT
+ -t 5.061656830 -s 8 -d 1 -p ack -e 40 -c 2 -a 0 -i 9 -k RTR 
- -t 5.061656830 -s 8 -d 1 -p ack -e 40 -c 2 -a 0 -i 9 -k RTR
h -t 5.061656830 -s 8 -d 1 -p ack -e 40 -c 2 -a 0 -i 9 -k RTR
r -t 5.063582523 -s 1 -d 1 -p ack -e 40 -c 2 -a 0 -i 8 -k AGT
+ -t 5.063582523 -s 1 -d -1 -p tcp -e 1040 -c 2 -a 0 -i 10 -k AGT 
- -t 5.063582523 -s 1 -d -1 -p tcp -e 1040 -c 2 -a 0 -i 10 -k AGT
h -t 5.063582523 -s 1 -d -1 -p tcp -e 1040 -c 2 -a 0 -i 10 -k AGT
+ -t 5.063582523 -s 1 -d -1 -p tcp -e 1040 -c 2 -a 0 -i 11 -k AGT 
- -t 5.063582523 -s 1 -d -1 -p tcp -e 1040 -c 2 -a 0 -i 11 -k AGT
h -t 5.063582523 -s 1 -d -1 -p tcp -e 1040 -c 2 -a 0 -i 11 -k AGT
+ -t 5.063582523 -s 1 -d 8 -p tcp -e 1040 -c 2 -a 0 -i 10 -k RTR 
- -t 5.063582523 -s 1 -d 8 -p tcp -e 1040 -c 2 -a 0 -i 10 -k RTR
h -t 5.063582523 -s 1 -d 8 -p tcp -e 1040 -c 2 -a 0 -i 10 -k RTR
+ -t 5.063582523 -s 1 -d 8 -p tcp -e 1040 -c 2 -a 0 -i 11 -k RTR 
- -t 5.063582523 -s 1 -d 8 -p tcp -e 1040 -c 2 -a 0 -i 11 -k RTR
h -t 5.063582523 -s 1 -d 8 -p tcp -e 1040 -c 2 -a 0 -i 11 -k RTR
r -t 5.073488217 -s 8 -d 8 -p tcp -e 1040 -c 2 -a 0 -i 10 -k AGT
+ -t 5.073488217 -s 8 -d -1 -p ack -e 40 -c 2 -a 0 -i 12 -k AGT 
- -t 5.073488217 -s 8 -d -1 -p ack -e 40 -c 2 -a 0 -i 12 -k AGT
h -t 5.073488217 -s 8 -d -1 -p ack -e 40 -c 2 -a 0 -i 12 -k AGT
+ -t 5.073488217 -s 8 -d 1 -p ack -e 40 -c 2 -a 0 -i 12 -k RTR 
- -t 5.073488217 -s 8 -d 1 -p ack -e 40 -c 2 -a 0 -i 12 -k RTR
h -t 5.073488217 -s 8 -d 1 -p ack -e 40 -c 2 -a 0 -i 12 -k RTR
r -t 5.083314476 -s 8 -d 8 -p tcp -e 1040 -c 2 -a 0 -i 11 -k AGT
+ -t 5.083314476 -s 8 -d -1 -p ack -e 40 -c 2 -a 0 -i 13 -k AGT 
- -t 5.083314476 -s 8 -d -1 -p ack -e 40 -c 2 -a 0 -i 13 -k AGT
h -t 5.083314476 -s 8 -d -1 -p ack -e 40 -c 2 -a 0 -i 13 -k AGT
+ -t 5.083314476 -s 8 -d 1 -p ack -e 40 -c 2 -a 0 -i 13 -k RTR 
- -t 5.083314476 -s 8 -d 1 -p ack -e 40 -c 2 -a 0 -i 13 -k RTR
h -t 5.083314476 -s 8 -d 1 -p ack -e 40 -c 2 -a 0 -i 13 -k RTR
r -t 5.085280170 -s 1 -d 1 -p ack -e 40 -c 2 -a 0 -i 9 -k AGT
+ -t 5.085280170 -s 1 -d -1 -p tcp -e 1040 -c 2 -a 0 -i 14 -k AGT 
- -t 5.085280170 -s 1 -d -1 -p tcp -e 1040 -c 2 -a 0 -i 14 -k AGT
h -t 5.085280170 -s 1 -d -1 -p tcp -e 1040 -c 2 -a 0 -i 14 -k AGT
+ -t 5.085280170 -s 1 -d -1 -p tcp -e 1040 -c 2 -a 0 -i 15 -k AGT 
- -t 5.085280170 -s 1 -d -1 -p tcp -e 1040 -c 2 -a 0 -i 15 -k AGT
h -t 5.085280170 -s 1 -d -1 -p tcp -e 1040 -c 2 -a 0 -i 15 -k AGT
+ -t 5.085280170 -s 1 -d 8 -p tcp -e 1040 -c 2 -a 0 -i 14 -k RTR 
- -t 5.085280170 -s 1 -d 8 -p tcp -e 1040 -c 2 -a 0 -i 14 -k RTR
h -t 5.085280170 -s 1 -d 8 -p tcp -e 1040 -c 2 -a 0 -i 14 -k RTR
+ -t 5.085280170 -s 1 -d 8 -p tcp -e 1040 -c 2 -a 0 -i 15 -k RTR 
- -t 5.085280170 -s 1 -d 8 -p tcp -e 1040 -c 2 -a 0 -i 15 -k RTR
h -t 5.085280170 -s 1 -d 8 -p tcp -e 1040 -c 2 -a 0 -i 15 -k RTR
+ -t 5.087316984 -s 8 -d 3 -p AODV -e 44 -c 2 -a 0 -i 0 -k RTR 
- -t 5.087316984 -s 8 -d 3 -p AODV -e 44 -c 2 -a 0 -i 0 -k RTR
h -t 5.087316984 -s 8 -d 3 -p AODV -e 44 -c 2 -a 0 -i 0 -k RTR
r -t 5.089282678 -s 1 -d 1 -p ack -e 40 -c 2 -a 0 -i 12 -k AGT
+ -t 5.089282678 -s 1 -d -1 -p tcp -e 1040 -c 2 -a 0 -i 16 -k AGT 
- -t 5.089282678 -s 1 -d -1 -p tcp -e 1040 -c 2 -a 0 -i 16 -k AGT
h -t 5.089282678 -s 1 -d -1 -p tcp -e 1040 -c 2 -a 0 -i 16 -k AGT
+ -t 5.089282678 -s 1 -d -1 -p tcp -e 1040 -c 2 -a 0 -i 17 -k AGT 
- -t 5.089282678 -s 1 -d -1 -p tcp -e 1040 -c 2 -a 0 -i 17 -k AGT
h -t 5.089282678 -s 1 -d -1 -p tcp -e 1040 -c 2 -a 0 -i 17 -k AGT
+ -t 5.089282678 -s 1 -d 8 -p tcp -e 1040 -c 2 -a 0 -i 16 -k RTR 
- -t 5.089282678 -s 1 -d 8 -p tcp -e 1040 -c 2 -a 0 -i 16 -k RTR
h -t 5.089282678 -s 1 -d 8 -p tcp -e 1040 -c 2 -a 0 -i 16 -k RTR
+ -t 5.089282678 -s 1 -d 8 -p tcp -e 1040 -c 2 -a 0 -i 17 -k RTR 
- -t 5.089282678 -s 1 -d 8 -p tcp -e 1040 -c 2 -a 0 -i 17 -k RTR
h -t 5.089282678 -s 1 -d 8 -p tcp -e 1040 -c 2 -a 0 -i 17 -k RTR
r -t 5.099148372 -s 8 -d 8 -p tcp -e 1040 -c 2 -a 0 -i 14 -k AGT
+ -t 5.099148372 -s 8 -d -1 -p ack -e 40 -c 2 -a 0 -i 18 -k AGT 
- -t 5.099148372 -s 8 -d -1 -p ack -e 40 -c 2 -a 0 -i 18 -k AGT
h -t 5.099148372 -s 8 -d -1 -p ack -e 40 -c 2 -a 0 -i 18 -k AGT
+ -t 5.099148372 -s 8 -d 1 -p ack -e 40 -c 2 -a 0 -i 18 -k RTR 
- -t 5.099148372 -s 8 -d 1 -p ack -e 40 -c 2 -a 0 -i 18 -k RTR
h -t 5.099148372 -s 8 -d 1 -p ack -e 40 -c 2 -a 0 -i 18 -k RTR
r -t 5.100600519 -s 8 -d -1 -p AODV -e 48 -c 2 -a 0 -i 0 -k RTR
r -t 5.100601039 -s 1 -d -1 -p AODV -e 48 -c 2 -a 0 -i 0 -k RTR
r -t 5.100601151 -s 5 -d -1 -p AODV -e 48 -c 2 -a 0 -i 0 -k RTR
r -t 5.100601204 -s 9 -d -1 -p AODV -e 48 -c 2 -a 0 -i 0 -k RTR
r -t 5.110192733 -s 8 -d 8 -p tcp -e 1040 -c 2 -a 0 -i 15 -k AGT
+ -t 5.110192733 -s 8 -d -1 -p ack -e 40 -c 2 -a 0 -i 19 -k AGT 
- -t 5.110192733 -s 8 -d -1 -p ack -e 40 -c 2 -a 0 -i 19 -k AGT
h -t 5.110192733 -s 8 -d -1 -p ack -e 40 -c 2 -a 0 -i 19 -k AGT
+ -t 5.110192733 -s 8 -d 1 -p ack -e 40 -c 2 -a 0 -i 19 -k RTR 
- -t 5.110192733 -s 8 -d 1 -p ack -e 40 -c 2 -a 0 -i 19 -k RTR
h -t 5.110192733 -s 8 -d 1 -p ack -e 40 -c 2 -a 0 -i 19 -k RTR
r -t 5.120038992 -s 8 -d 8 -p tcp -e 1040 -c 2 -a 0 -i 16 -k AGT
+ -t 5.120038992 -s 8 -d -1 -p ack -e 40 -c 2 -a 0 -i 20 -k AGT 
- -t 5.120038992 -s 8 -d -1 -p ack -e 40 -c 2 -a 0 -i 20 -k AGT
h -t 5.120038992 -s 8 -d -1 -p ack -e 40 -c 2 -a 0 -i 20 -k AGT
+ -t 5.120038992 -s 8 -d 1 -p ack -e 40 -c 2 -a 0 -i 20 -k RTR 
- -t 5.120038992 -s 8 -d 1 -p ack -e 40 -c 2 -a 0 -i 20 -k RTR
h -t 5.120038992 -s 8 -d 1 -p ack -e 40 -c 2 -a 0 -i 20 -k RTR
r -t 5.121311139 -s 8 -d -1 -p AODV -e 48 -c 2 -a 0 -i 0 -k RTR
r -t 5.121311659 -s 1 -d -1 -p AODV -e 48 -c 2 -a 0 -i 0 -k RTR
r -t 5.121311771 -s 5 -d -1 -p AODV -e 48 -c 2 -a 0 -i 0 -k RTR
r -t 5.121311824 -s 9 -d -1 -p AODV -e 48 -c 2 -a 0 -i 0 -k RTR
r -t 5.122882832 -s 1 -d 1 -p ack -e 40 -c 2 -a 0 -i 13 -k AGT
+ -t 5.122882832 -s 1 -d -1 -p tcp -e 1040 -c 2 -a 0 -i 21 -k AGT 
- -t 5.122882832 -s 1 -d -1 -p tcp -e 1040 -c 2 -a 0 -i 21 -k AGT
h -t 5.122882832 -s 1 -d -1 -p tcp -e 1040 -c 2 -a 0 -i 21 -k AGT
+ -t 5.122882832 -s 1 -d -1 -p tcp -e 1040 -c 2 -a 0 -i 22 -k AGT 
- -t 5.122882832 -s 1 -d -1 -p tcp -e 1040 -c 2 -a 0 -i 22 -k AGT
h -t 5.122882832 -s 1 -d -1 -p tcp -e 1040 -c 2 -a 0 -i 22 -k AGT
+ -t 5.122882832 -s 1 -d 8 -p tcp -e 1040 -c 2 -a 0 -i 21 -k RTR 
- -t 5.122882832 -s 1 -d 8 -p tcp -e 1040 -c 2 -a 0 -i 21 -k RTR
h -t 5.122882832 -s 1 -d 8 -p tcp -e 1040 -c 2 -a 0 -i 21 -k RTR
+ -t 5.122882832 -s 1 -d 8 -p tcp -e 1040 -c 2 -a 0 -i 22 -k RTR 
- -t 5.122882832 -s 1 -d 8 -p tcp -e 1040 -c 2 -a 0 -i 22 -k RTR
h -t 5.122882832 -s 1 -d 8 -p tcp -e 1040 -c 2 -a 0 -i 22 -k RTR
r -t 5.124873544 -s 8 -d -1 -p AODV -e 48 -c 2 -a 0 -i 0 -k RTR
r -t 5.124874065 -s 1 -d -1 -p AODV -e 48 -c 2 -a 0 -i 0 -k RTR
r -t 5.124874177 -s 5 -d -1 -p AODV -e 48 -c 2 -a 0 -i 0 -k RTR
r -t 5.124874229 -s 9 -d -1 -p AODV -e 48 -c 2 -a 0 -i 0 -k RTR
r -t 5.126405238 -s 1 -d 1 -p ack -e 40 -c 2 -a 0 -i 18 -k AGT
+ -t 5.126405238 -s 1 -d -1 -p tcp -e 1040 -c 2 -a 0 -i 23 -k AGT 
- -t 5.126405238 -s 1 -d -1 -p tcp -e 1040 -c 2 -a 0 -i 23 -k AGT
h -t 5.126405238 -s 1 -d -1 -p tcp -e 1040 -c 2 -a 0 -i 23 -k AGT
+ -t 5.126405238 -s 1 -d -1 -p tcp -e 1040 -c 2 -a 0 -i 24 -k AGT 
- -t 5.126405238 -s 1 -d -1 -p tcp -e 1040 -c 2 -a 0 -i 24 -k AGT
h -t 5.126405238 -s 1 -d -1 -p tcp -e 1040 -c 2 -a 0 -i 24 -k AGT
+ -t 5.126405238 -s 1 -d 8 -p tcp -e 1040 -c 2 -a 0 -i 23 -k RTR 
- -t 5.126405238 -s 1 -d 8 -p tcp -e 1040 -c 2 -a 0 -i 23 -k RTR
h -t 5.126405238 -s 1 -d 8 -p tcp -e 1040 -c 2 -a 0 -i 23 -k RTR
+ -t 5.126405238 -s 1 -d 8 -p tcp -e 1040 -c 2 -a 0 -i 24 -k RTR 
- -t 5.126405238 -s 1 -d 8 -p tcp -e 1040 -c 2 -a 0 -i 24 -k RTR
h -t 5.126405238 -s 1 -d 8 -p tcp -e 1040 -c 2 -a 0 -i 24 -k RTR
r -t 5.136310932 -s 8 -d 8 -p tcp -e 1040 -c 2 -a 0 -i 17 -k AGT
+ -t 5.136310932 -s 8 -d -1 -p ack -e 40 -c 2 -a 0 -i 25 -k AGT 
- -t 5.136310932 -s 8 -d -1 -p ack -e 40 -c 2 -a 0 -i 25 -k AGT
h -t 5.136310932 -s 8 -d -1 -p ack -e 40 -c 2 -a 0 -i 25 -k AGT
+ -t 5.136310932 -s 8 -d 1 -p ack -e 40 -c 2 -a 0 -i 25 -k RTR 
- -t 5.136310932 -s 8 -d 1 -p ack -e 40 -c 2 -a 0 -i 25 -k RTR
h -t 5.136310932 -s 8 -d 1 -p ack -e 40 -c 2 -a 0 -i 25 -k RTR
r -t 5.146157190 -s 8 -d 8 -p tcp -e 1040 -c 2 -a 0 -i 21 -k AGT
+ -t 5.146157190 -s 8 -d -1 -p ack -e 40 -c 2 -a 0 -i 26 -k AGT 
- -t 5.146157190 -s 8 -d -1 -p ack -e 40 -c 2 -a 0 -i 26 -k AGT
h -t 5.146157190 -s 8 -d -1 -p ack -e 40 -c 2 -a 0 -i 26 -k AGT
+ -t 5.146157190 -s 8 -d 1 -p ack -e 40 -c 2 -a 0 -i 26 -k RTR 
- -t 5.146157190 -s 8 -d 1 -p ack -e 40 -c 2 -a 0 -i 26 -k RTR
h -t 5.146157190 -s 8 -d 1 -p ack -e 40 -c 2 -a 0 -i 26 -k RTR
r -t 5.156003449 -s 8 -d 8 -p tcp -e 1040 -c 2 -a 0 -i 22 -k AGT
+ -t 5.156003449 -s 8 -d -1 -p ack -e 40 -c 2 -a 0 -i 27 -k AGT 
- -t 5.156003449 -s 8 -d -1 -p ack -e 40 -c 2 -a 0 -i 27 -k AGT
h -t 5.156003449 -s 8 -d -1 -p ack -e 40 -c 2 -a 0 -i 27 -k AGT
+ -t 5.156003449 -s 8 -d 1 -p ack -e 40 -c 2 -a 0 -i 27 -k RTR 
- -t 5.156003449 -s 8 -d 1 -p ack -e 40 -c 2 -a 0 -i 27 -k RTR
h -t 5.156003449 -s 8 -d 1 -p ack -e 40 -c 2 -a 0 -i 27 -k RTR
r -t 5.165889707 -s 8 -d 8 -p tcp -e 1040 -c 2 -a 0 -i 23 -k AGT
+ -t 5.165889707 -s 8 -d -1 -p ack -e 40 -c 2 -a 0 -i 28 -k AGT 
- -t 5.165889707 -s 8 -d -1 -p ack -e 40 -c 2 -a 0 -i 28 -k AGT
h -t 5.165889707 -s 8 -d -1 -p ack -e 40 -c 2 -a 0 -i 28 -k AGT
+ -t 5.165889707 -s 8 -d 1 -p ack -e 40 -c 2 -a 0 -i 28 -k RTR 
- -t 5.165889707 -s 8 -d 1 -p ack -e 40 -c 2 -a 0 -i 28 -k RTR
h -t 5.165889707 -s 8 -d 1 -p ack -e 40 -c 2 -a 0 -i 28 -k RTR
r -t 5.167955401 -s 1 -d 1 -p ack -e 40 -c 2 -a 0 -i 19 -k AGT
+ -t 5.167955401 -s 1 -d -1 -p tcp -e 1040 -c 2 -a 0 -i 29 -k AGT 
- -t 5.167955401 -s 1 -d -1 -p tcp -e 1040 -c 2 -a 0 -i 29 -k AGT
h -t 5.167955401 -s 1 -d -1 -p tcp -e 1040 -c 2 -a 0 -i 29 -k AGT