s 5.000000000 _0_ AGT  --- 0 tcp 40 [0 0 0 0] ------- [0:0 9:0 32 0] [0 0] 0 0
r 5.000000000 _0_ RTR  --- 0 tcp 40 [0 0 0 0] ------- [0:0 9:0 32 0] [0 0] 0 0
s 5.000000000 _1_ AGT  --- 1 tcp 40 [0 0 0 0] ------- [1:0 8:0 32 0] [0 0] 0 0
r 5.000000000 _1_ RTR  --- 1 tcp 40 [0 0 0 0] ------- [1:0 8:0 32 0] [0 0] 0 0
s 5.000000000 _2_ AGT  --- 2 tcp 40 [0 0 0 0] ------- [2:0 7:0 32 0] [0 0] 0 0
r 5.000000000 _2_ RTR  --- 2 tcp 40 [0 0 0 0] ------- [2:0 7:0 32 0] [0 0] 0 0
s 5.000000000 _3_ AGT  --- 3 tcp 40 [0 0 0 0] ------- [3:0 6:0 32 0] [0 0] 0 0
r 5.000000000 _3_ RTR  --- 3 tcp 40 [0 0 0 0] ------- [3:0 6:0 32 0] [0 0] 0 0
s 5.000000000 _4_ AGT  --- 4 tcp 40 [0 0 0 0] ------- [4:0 5:0 32 0] [0 0] 0 0
r 5.000000000 _4_ RTR  --- 4 tcp 40 [0 0 0 0] ------- [4:0 5:0 32 0] [0 0] 0 0
s 5.000000000 _0_ RTR  --- 0 AODV 48 [0 0 0 0] ------- [0:255 -1:255 30 0] [0x2 1 1 [9 0] [0 4]] (REQUEST)
s 5.000000000 _1_ RTR  --- 0 AODV 48 [0 0 0 0] ------- [1:255 -1:255 30 0] [0x2 1 1 [8 0] [1 4]] (REQUEST)
s 5.000000000 _2_ RTR  --- 0 AODV 48 [0 0 0 0] ------- [2:255 -1:255 30 0] [0x2 1 1 [7 0] [2 4]] (REQUEST)
s 5.000000000 _3_ RTR  --- 0 AODV 48 [0 0 0 0] ------- [3:255 -1:255 30 0] [0x2 1 1 [6 0] [3 4]] (REQUEST)
s 5.000000000 _4_ RTR  --- 0 AODV 48 [0 0 0 0] ------- [4:255 -1:255 30 0] [0x2 1 1 [5 0] [4 4]] (REQUEST)
r 5.000948111 _2_ RTR  --- 0 AODV 48 [0 ffffffff 0 800] ------- [0:255 -1:255 30 0] [0x2 1 1 [9 0] [0 4]] (REQUEST)
r 5.000948166 _7_ RTR  --- 0 AODV 48 [0 ffffffff 0 800] ------- [0:255 -1:255 30 0] [0x2 1 1 [9 0] [0 4]] (REQUEST)
r 5.000948720 _9_ RTR  --- 0 AODV 48 [0 ffffffff 0 800] ------- [0:255 -1:255 30 0] [0x2 1 1 [9 0] [0 4]] (REQUEST)
s 5.000948720 _9_ RTR  --- 0 AODV 44 [0 0 0 0] ------- [9:255 0:255 30 0] [0x4 1 [9 4] 10.000000] (REPLY)
r 5.000948812 _5_ RTR  --- 0 AODV 48 [0 ffffffff 0 800] ------- [0:255 -1:255 30 0] [0x2 1 1 [9 0] [0 4]] (REQUEST)
s 5.001376758 _5_ RTR  --- 0 AODV 48 [0 ffffffff 0 800] ------- [5:255 -1:255 29 0] [0x2 2 1 [9 0] [0 4]] (REQUEST)
s 5.002589620 _7_ RTR  --- 0 AODV 48 [0 ffffffff 0 800] ------- [7:255 -1:255 29 0] [0x2 2 1 [9 0] [0 4]] (REQUEST)
r 5.002795616 _0_ RTR  --- 0 AODV 48 [0 ffffffff 2 800] ------- [2:255 -1:255 30 0] [0x2 1 1 [7 0] [2 4]] (REQUEST)
r 5.002795775 _7_ RTR  --- 0 AODV 48 [0 ffffffff 2 800] ------- [2:255 -1:255 30 0] [0x2 1 1 [7 0] [2 4]] (REQUEST)
s 5.002795775 _7_ RTR  --- 0 AODV 44 [0 0 0 0] ------- [7:255 2:255 30 2] [0x4 1 [7 4] 10.000000] (REPLY)
r 5.002796290 _9_ RTR  --- 0 AODV 48 [0 ffffffff 2 800] ------- [2:255 -1:255 30 0] [0x2 1 1 [7 0] [2 4]] (REQUEST)
s 5.003737005 _0_ RTR  --- 0 AODV 48 [0 ffffffff 2 800] ------- [0:255 -1:255 29 0] [0x2 2 1 [7 0] [2 4]] (REQUEST)
r 5.005584665 _0_ RTR  --- 0 AODV 48 [0 ffffffff 7 800] ------- [7:255 -1:255 29 0] [0x2 2 1 [9 0] [0 4]] (REQUEST)
r 5.005584770 _2_ RTR  --- 0 AODV 48 [0 ffffffff 7 800] ------- [7:255 -1:255 29 0] [0x2 2 1 [9 0] [0 4]] (REQUEST)
r 5.005585222 _9_ RTR  --- 0 AODV 48 [0 ffffffff 7 800] ------- [7:255 -1:255 29 0] [0x2 2 1 [9 0] [0 4]] (REQUEST)
r 5.005585321 _5_ RTR  --- 0 AODV 48 [0 ffffffff 7 800] ------- [7:255 -1:255 29 0] [0x2 2 1 [9 0] [0 4]] (REQUEST)
r 5.007189383 _0_ RTR  --- 0 AODV 44 [13a 0 9 800] ------- [9:255 0:255 30 0] [0x4 1 [9 4] 10.000000] (REPLY)
s 5.007189383 _0_ RTR  --- 0 tcp 40 [0 0 0 0] ------- [0:0 9:0 30 9] [0 0] 0 0
r 5.008441494 _2_ RTR  --- 0 AODV 48 [0 ffffffff 0 800] ------- [0:255 -1:255 29 0] [0x2 2 1 [7 0] [2 4]] (REQUEST)
r 5.008441549 _7_ RTR  --- 0 AODV 48 [0 ffffffff 0 800] ------- [0:255 -1:255 29 0] [0x2 2 1 [7 0] [2 4]] (REQUEST)
r 5.008442103 _9_ RTR  --- 0 AODV 48 [0 ffffffff 0 800] ------- [0:255 -1:255 29 0] [0x2 2 1 [7 0] [2 4]] (REQUEST)
r 5.008442195 _5_ RTR  --- 0 AODV 48 [0 ffffffff 0 800] ------- [0:255 -1:255 29 0] [0x2 2 1 [7 0] [2 4]] (REQUEST)
s 5.009311346 _2_ RTR  --- 0 AODV 48 [0 ffffffff 0 800] ------- [2:255 -1:255 29 0] [0x2 2 1 [9 0] [0 4]] (REQUEST)
r 5.010218472 _9_ RTR  --- 0 AODV 48 [0 ffffffff 5 800] ------- [5:255 -1:255 29 0] [0x2 2 1 [9 0] [0 4]] (REQUEST)
r 5.010218539 _1_ RTR  --- 0 AODV 48 [0 ffffffff 5 800] ------- [5:255 -1:255 29 0] [0x2 2 1 [9 0] [0 4]] (REQUEST)
r 5.010218898 _4_ RTR  --- 0 AODV 48 [0 ffffffff 5 800] ------- [5:255 -1:255 29 0] [0x2 2 1 [9 0] [0 4]] (REQUEST)
r 5.010219060 _8_ RTR  --- 0 AODV 48 [0 ffffffff 5 800] ------- [5:255 -1:255 29 0] [0x2 2 1 [9 0] [0 4]] (REQUEST)
r 5.010219077 _6_ RTR  --- 0 AODV 48 [0 ffffffff 5 800] ------- [5:255 -1:255 29 0] [0x2 2 1 [9 0] [0 4]] (REQUEST)
r 5.010219131 _3_ RTR  --- 0 AODV 48 [0 ffffffff 5 800] ------- [5:255 -1:255 29 0] [0x2 2 1 [9 0] [0 4]] (REQUEST)
r 5.010219183 _0_ RTR  --- 0 AODV 48 [0 ffffffff 5 800] ------- [5:255 -1:255 29 0] [0x2 2 1 [9 0] [0 4]] (REQUEST)
r 5.010219192 _7_ RTR  --- 0 AODV 48 [0 ffffffff 5 800] ------- [5:255 -1:255 29 0] [0x2 2 1 [9 0] [0 4]] (REQUEST)
s 5.010866575 _9_ RTR  --- 0 AODV 48 [0 ffffffff 2 800] ------- [9:255 -1:255 29 0] [0x2 2 1 [7 0] [2 4]] (REQUEST)
r 5.011216708 _5_ RTR  --- 0 AODV 48 [0 ffffffff 1 800] ------- [1:255 -1:255 30 0] [0x2 1 1 [8 0] [1 4]] (REQUEST)
r 5.011216806 _9_ RTR  --- 0 AODV 48 [0 ffffffff 1 800] ------- [1:255 -1:255 30 0] [0x2 1 1 [8 0] [1 4]] (REQUEST)
r 5.011217015 _4_ RTR  --- 0 AODV 48 [0 ffffffff 1 800] ------- [1:255 -1:255 30 0] [0x2 1 1 [8 0] [1 4]] (REQUEST)
r 5.011217104 _8_ RTR  --- 0 AODV 48 [0 ffffffff 1 800] ------- [1:255 -1:255 30 0] [0x2 1 1 [8 0] [1 4]] (REQUEST)
s 5.011217104 _8_ RTR  --- 0 AODV 44 [0 0 0 0] ------- [8:255 1:255 30 1] [0x4 1 [8 4] 10.000000] (REPLY)
r 5.011217133 _6_ RTR  --- 0 AODV 48 [0 ffffffff 1 800] ------- [1:255 -1:255 30 0] [0x2 1 1 [8 0] [1 4]] (REQUEST)
r 5.011217159 _3_ RTR  --- 0 AODV 48 [0 ffffffff 1 800] ------- [1:255 -1:255 30 0] [0x2 1 1 [8 0] [1 4]] (REQUEST)
r 5.012255590 _4_ RTR  --- 0 AODV 48 [0 ffffffff 3 800] ------- [3:255 -1:255 30 0] [0x2 1 1 [6 0] [3 4]] (REQUEST)
r 5.012255780 _1_ RTR  --- 0 AODV 48 [0 ffffffff 3 800] ------- [3:255 -1:255 30 0] [0x2 1 1 [6 0] [3 4]] (REQUEST)
r 5.012255920 _5_ RTR  --- 0 AODV 48 [0 ffffffff 3 800] ------- [3:255 -1:255 30 0] [0x2 1 1 [6 0] [3 4]] (REQUEST)
r 5.012255964 _8_ RTR  --- 0 AODV 48 [0 ffffffff 3 800] ------- [3:255 -1:255 30 0] [0x2 1 1 [6 0] [3 4]] (REQUEST)
s 5.012308692 _5_ RTR  --- 0 AODV 48 [0 ffffffff 1 800] ------- [5:255 -1:255 29 0] [0x2 2 1 [8 0] [1 4]] (REQUEST)
s 5.012363863 _1_ RTR  --- 0 AODV 48 [0 ffffffff 3 800] ------- [1:255 -1:255 29 0] [0x2 2 1 [6 0] [3 4]] (REQUEST)
s 5.012390492 _4_ RTR  --- 0 AODV 48 [0 ffffffff 5 800] ------- [4:255 -1:255 28 0] [0x2 3 1 [9 0] [0 4]] (REQUEST)
s 5.012631317 _8_ RTR  --- 0 AODV 48 [0 ffffffff 5 800] ------- [8:255 -1:255 28 0] [0x2 3 1 [9 0] [0 4]] (REQUEST)
s 5.012839616 _4_ RTR  --- 0 AODV 48 [0 ffffffff 3 800] ------- [4:255 -1:255 29 0] [0x2 2 1 [6 0] [3 4]] (REQUEST)
s 5.013090667 _4_ RTR  --- 0 AODV 48 [0 ffffffff 1 800] ------- [4:255 -1:255 29 0] [0x2 2 1 [8 0] [1 4]] (REQUEST)
s 5.013103354 _5_ RTR  --- 0 AODV 48 [0 ffffffff 0 800] ------- [5:255 -1:255 28 0] [0x2 3 1 [7 0] [2 4]] (REQUEST)
r 5.013214020 _3_ RTR  --- 0 AODV 48 [0 ffffffff 4 800] ------- [4:255 -1:255 30 0] [0x2 1 1 [5 0] [4 4]] (REQUEST)
r 5.013214065 _1_ RTR  --- 0 AODV 48 [0 ffffffff 4 800] ------- [4:255 -1:255 30 0] [0x2 1 1 [5 0] [4 4]] (REQUEST)
r 5.013214117 _5_ RTR  --- 0 AODV 48 [0 ffffffff 4 800] ------- [4:255 -1:255 30 0] [0x2 1 1 [5 0] [4 4]] (REQUEST)
s 5.013214117 _5_ RTR  --- 0 AODV 44 [0 0 0 0] ------- [5:255 4:255 30 4] [0x4 1 [5 4] 10.000000] (REPLY)
r 5.013214194 _9_ RTR  --- 0 AODV 48 [0 ffffffff 4 800] ------- [4:255 -1:255 30 0] [0x2 1 1 [5 0] [4 4]] (REQUEST)
r 5.014292020 _3_ RTR  --- 0 AODV 48 [0 ffffffff 4 800] ------- [4:255 -1:255 29 0] [0x2 2 1 [8 0] [1 4]] (REQUEST)
r 5.014292065 _1_ RTR  --- 0 AODV 48 [0 ffffffff 4 800] ------- [4:255 -1:255 29 0] [0x2 2 1 [8 0] [1 4]] (REQUEST)
r 5.014292117 _5_ RTR  --- 0 AODV 48 [0 ffffffff 4 800] ------- [4:255 -1:255 29 0] [0x2 2 1 [8 0] [1 4]] (REQUEST)
r 5.014292194 _9_ RTR  --- 0 AODV 48 [0 ffffffff 4 800] ------- [4:255 -1:255 29 0] [0x2 2 1 [8 0] [1 4]] (REQUEST)
r 5.015230295 _5_ RTR  --- 0 AODV 48 [0 ffffffff 9 800] ------- [9:255 -1:255 29 0] [0x2 2 1 [7 0] [2 4]] (REQUEST)
r 5.015230460 _1_ RTR  --- 0 AODV 48 [0 ffffffff 9 800] ------- [9:255 -1:255 29 0] [0x2 2 1 [7 0] [2 4]] (REQUEST)
r 5.015230797 _4_ RTR  --- 0 AODV 48 [0 ffffffff 9 800] ------- [9:255 -1:255 29 0] [0x2 2 1 [7 0] [2 4]] (REQUEST)
r 5.015230914 _0_ RTR  --- 0 AODV 48 [0 ffffffff 9 800] ------- [9:255 -1:255 29 0] [0x2 2 1 [7 0] [2 4]] (REQUEST)
r 5.015230916 _7_ RTR  --- 0 AODV 48 [0 ffffffff 9 800] ------- [9:255 -1:255 29 0] [0x2 2 1 [7 0] [2 4]] (REQUEST)
r 5.015230944 _8_ RTR  --- 0 AODV 48 [0 ffffffff 9 800] ------- [9:255 -1:255 29 0] [0x2 2 1 [7 0] [2 4]] (REQUEST)
r 5.015230953 _6_ RTR  --- 0 AODV 48 [0 ffffffff 9 800] ------- [9:255 -1:255 29 0] [0x2 2 1 [7 0] [2 4]] (REQUEST)
r 5.015230978 _2_ RTR  --- 0 AODV 48 [0 ffffffff 9 800] ------- [9:255 -1:255 29 0] [0x2 2 1 [7 0] [2 4]] (REQUEST)
s 5.015258881 _9_ RTR  --- 0 AODV 48 [0 ffffffff 1 800] ------- [9:255 -1:255 29 0] [0x2 2 1 [8 0] [1 4]] (REQUEST)
s 5.015506519 _8_ RTR  --- 0 AODV 48 [0 ffffffff 9 800] ------- [8:255 -1:255 28 0] [0x2 3 1 [7 0] [2 4]] (REQUEST)
s 5.015612592 _8_ RTR  --- 0 AODV 48 [0 ffffffff 3 800] ------- [8:255 -1:255 29 0] [0x2 2 1 [6 0] [3 4]] (REQUEST)
s 5.015783957 _3_ RTR  --- 0 AODV 48 [0 ffffffff 4 800] ------- [3:255 -1:255 29 0] [0x2 2 1 [5 0] [4 4]] (REQUEST)
r 5.016907018 _6_ RTR  --- 0 AODV 48 [0 ffffffff 8 800] ------- [8:255 -1:255 29 0] [0x2 2 1 [6 0] [3 4]] (REQUEST)
s 5.016907018 _6_ RTR  --- 0 AODV 44 [0 0 0 0] ------- [6:255 3:255 30 8] [0x4 1 [6 4] 10.000000] (REPLY)
r 5.016907509 _1_ RTR  --- 0 AODV 48 [0 ffffffff 8 800] ------- [8:255 -1:255 29 0] [0x2 2 1 [6 0] [3 4]] (REQUEST)
r 5.016907634 _5_ RTR  --- 0 AODV 48 [0 ffffffff 8 800] ------- [8:255 -1:255 29 0] [0x2 2 1 [6 0] [3 4]] (REQUEST)
r 5.016907695 _9_ RTR  --- 0 AODV 48 [0 ffffffff 8 800] ------- [8:255 -1:255 29 0] [0x2 2 1 [6 0] [3 4]] (REQUEST)
r 5.016907749 _3_ RTR  --- 0 AODV 48 [0 ffffffff 8 800] ------- [8:255 -1:255 29 0] [0x2 2 1 [6 0] [3 4]] (REQUEST)
s 5.016992620 _3_ RTR  --- 0 AODV 48 [0 ffffffff 5 800] ------- [3:255 -1:255 28 0] [0x2 3 1 [9 0] [0 4]] (REQUEST)
s 5.018206194 _5_ RTR  --- 0 AODV 48 [0 ffffffff 3 800] ------- [5:255 -1:255 29 0] [0x2 2 1 [6 0] [3 4]] (REQUEST)
s 5.018504123 _6_ RTR  --- 0 AODV 48 [0 ffffffff 9 800] ------- [6:255 -1:255 28 0] [0x2 3 1 [7 0] [2 4]] (REQUEST)
s 5.018616791 _1_ RTR  --- 0 AODV 48 [0 ffffffff 5 800] ------- [1:255 -1:255 28 0] [0x2 3 1 [9 0] [0 4]] (REQUEST)
s 5.018662413 _9_ RTR  --- 0 AODV 48 [0 ffffffff 4 800] ------- [9:255 -1:255 29 0] [0x2 2 1 [5 0] [4 4]] (REQUEST)
s 5.018730142 _6_ RTR  --- 0 AODV 48 [0 ffffffff 5 800] ------- [6:255 -1:255 28 0] [0x2 3 1 [9 0] [0 4]] (REQUEST)
s 5.019487670 _4_ RTR  --- 0 AODV 48 [0 ffffffff 9 800] ------- [4:255 -1:255 28 0] [0x2 3 1 [7 0] [2 4]] (REQUEST)
s 5.020091569 _6_ RTR  --- 0 AODV 48 [0 ffffffff 1 800] ------- [6:255 -1:255 29 0] [0x2 2 1 [8 0] [1 4]] (REQUEST)
s 5.020200798 _1_ RTR  --- 0 AODV 48 [0 ffffffff 4 800] ------- [1:255 -1:255 29 0] [0x2 2 1 [5 0] [4 4]] (REQUEST)
s 5.020679809 _3_ RTR  --- 0 AODV 48 [0 ffffffff 1 800] ------- [3:255 -1:255 29 0] [0x2 2 1 [8 0] [1 4]] (REQUEST)
s 5.020778857 _1_ RTR  --- 0 AODV 48 [0 ffffffff 9 800] ------- [1:255 -1:255 28 0] [0x2 3 1 [7 0] [2 4]] (REQUEST)
r 5.021037570 _6_ RTR  --- 0 AODV 48 [0 ffffffff 8 800] ------- [8:255 -1:255 28 0] [0x2 3 1 [7 0] [2 4]] (REQUEST)
r 5.021038061 _1_ RTR  --- 0 AODV 48 [0 ffffffff 8 800] ------- [8:255 -1:255 28 0] [0x2 3 1 [7 0] [2 4]] (REQUEST)
r 5.021038187 _5_ RTR  --- 0 AODV 48 [0 ffffffff 8 800] ------- [8:255 -1:255 28 0] [0x2 3 1 [7 0] [2 4]] (REQUEST)
r 5.021038248 _9_ RTR  --- 0 AODV 48 [0 ffffffff 8 800] ------- [8:255 -1:255 28 0] [0x2 3 1 [7 0] [2 4]] (REQUEST)
r 5.021038301 _3_ RTR  --- 0 AODV 48 [0 ffffffff 8 800] ------- [8:255 -1:255 28 0] [0x2 3 1 [7 0] [2 4]] (REQUEST)
s 5.021951870 _3_ RTR  --- 0 AODV 48 [0 ffffffff 8 800] ------- [3:255 -1:255 27 0] [0x2 4 1 [7 0] [2 4]] (REQUEST)
r 5.023259538 _4_ RTR  --- 0 AODV 48 [0 ffffffff 3 800] ------- [3:255 -1:255 29 0] [0x2 2 1 [5 0] [4 4]] (REQUEST)
r 5.025540182 _5_ RTR  --- 0 AODV 48 [0 ffffffff 1 800] ------- [1:255 -1:255 28 0] [0x2 3 1 [7 0] [2 4]] (REQUEST)
r 5.025540280 _9_ RTR  --- 0 AODV 48 [0 ffffffff 1 800] ------- [1:255 -1:255 28 0] [0x2 3 1 [7 0] [2 4]] (REQUEST)
r 5.025540489 _4_ RTR  --- 0 AODV 48 [0 ffffffff 1 800] ------- [1:255 -1:255 28 0] [0x2 3 1 [7 0] [2 4]] (REQUEST)
r 5.025540578 _8_ RTR  --- 0 AODV 48 [0 ffffffff 1 800] ------- [1:255 -1:255 28 0] [0x2 3 1 [7 0] [2 4]] (REQUEST)
r 5.025540608 _6_ RTR  --- 0 AODV 48 [0 ffffffff 1 800] ------- [1:255 -1:255 28 0] [0x2 3 1 [7 0] [2 4]] (REQUEST)
r 5.025540634 _3_ RTR  --- 0 AODV 48 [0 ffffffff 1 800] ------- [1:255 -1:255 28 0] [0x2 3 1 [7 0] [2 4]] (REQUEST)
s 5.026375857 _9_ RTR  --- 0 AODV 48 [0 ffffffff 8 800] ------- [9:255 -1:255 28 0] [0x2 3 1 [6 0] [3 4]] (REQUEST)
r 5.027124272 _1_ RTR  --- 0 AODV 44 [13a 1 8 800] ------- [8:255 1:255 30 1] [0x4 1 [8 4] 10.000000] (REPLY)
s 5.027124272 _1_ RTR  --- 1 tcp 40 [0 0 0 0] ------- [1:0 8:0 30 8] [0 0] 0 0
r 5.028357323 _4_ RTR  --- 0 AODV 48 [0 ffffffff 3 800] ------- [3:255 -1:255 29 0] [0x2 2 1 [8 0] [1 4]] (REQUEST)
r 5.028357513 _1_ RTR  --- 0 AODV 48 [0 ffffffff 3 800] ------- [3:255 -1:255 29 0] [0x2 2 1 [8 0] [1 4]] (REQUEST)
r 5.028357653 _5_ RTR  --- 0 AODV 48 [0 ffffffff 3 800] ------- [3:255 -1:255 29 0] [0x2 2 1 [8 0] [1 4]] (REQUEST)
r 5.028357697 _8_ RTR  --- 0 AODV 48 [0 ffffffff 3 800] ------- [3:255 -1:255 29 0] [0x2 2 1 [8 0] [1 4]] (REQUEST)
r 5.029295770 _6_ RTR  --- 0 AODV 48 [0 ffffffff 8 800] ------- [8:255 -1:255 28 0] [0x2 3 1 [9 0] [0 4]] (REQUEST)
r 5.029296262 _1_ RTR  --- 0 AODV 48 [0 ffffffff 8 800] ------- [8:255 -1:255 28 0] [0x2 3 1 [9 0] [0 4]] (REQUEST)
r 5.029296387 _5_ RTR  --- 0 AODV 48 [0 ffffffff 8 800] ------- [8:255 -1:255 28 0] [0x2 3 1 [9 0] [0 4]] (REQUEST)
r 5.029296448 _9_ RTR  --- 0 AODV 48 [0 ffffffff 8 800] ------- [8:255 -1:255 28 0] [0x2 3 1 [9 0] [0 4]] (REQUEST)
r 5.029296502 _3_ RTR  --- 0 AODV 48 [0 ffffffff 8 800] ------- [8:255 -1:255 28 0] [0x2 3 1 [9 0] [0 4]] (REQUEST)
r 5.030274488 _9_ RTR  --- 0 AODV 48 [0 ffffffff 5 800] ------- [5:255 -1:255 28 0] [0x2 3 1 [7 0] [2 4]] (REQUEST)
r 5.030274555 _1_ RTR  --- 0 AODV 48 [0 ffffffff 5 800] ------- [5:255 -1:255 28 0] [0x2 3 1 [7 0] [2 4]] (REQUEST)
r 5.030274914 _4_ RTR  --- 0 AODV 48 [0 ffffffff 5 800] ------- [5:255 -1:255 28 0] [0x2 3 1 [7 0] [2 4]] (REQUEST)
r 5.030275077 _8_ RTR  --- 0 AODV 48 [0 ffffffff 5 800] ------- [5:255 -1:255 28 0] [0x2 3 1 [7 0] [2 4]] (REQUEST)
r 5.030275093 _6_ RTR  --- 0 AODV 48 [0 ffffffff 5 800] ------- [5:255 -1:255 28 0] [0x2 3 1 [7 0] [2 4]] (REQUEST)
r 5.030275147 _3_ RTR  --- 0 AODV 48 [0 ffffffff 5 800] ------- [5:255 -1:255 28 0] [0x2 3 1 [7 0] [2 4]] (REQUEST)
r 5.030275199 _0_ RTR  --- 0 AODV 48 [0 ffffffff 5 800] ------- [5:255 -1:255 28 0] [0x2 3 1 [7 0] [2 4]] (REQUEST)
r 5.030275208 _7_ RTR  --- 0 AODV 48 [0 ffffffff 5 800] ------- [5:255 -1:255 28 0] [0x2 3 1 [7 0] [2 4]] (REQUEST)
r 5.031192724 _5_ RTR  --- 0 AODV 48 [0 ffffffff 1 800] ------- [1:255 -1:255 29 0] [0x2 2 1 [5 0] [4 4]] (REQUEST)
r 5.031192822 _9_ RTR  --- 0 AODV 48 [0 ffffffff 1 800] ------- [1:255 -1:255 29 0] [0x2 2 1 [5 0] [4 4]] (REQUEST)
r 5.031193031 _4_ RTR  --- 0 AODV 48 [0 ffffffff 1 800] ------- [1:255 -1:255 29 0] [0x2 2 1 [5 0] [4 4]] (REQUEST)
r 5.031193120 _8_ RTR  --- 0 AODV 48 [0 ffffffff 1 800] ------- [1:255 -1:255 29 0] [0x2 2 1 [5 0] [4 4]] (REQUEST)
r 5.031193149 _6_ RTR  --- 0 AODV 48 [0 ffffffff 1 800] ------- [1:255 -1:255 29 0] [0x2 2 1 [5 0] [4 4]] (REQUEST)
r 5.031193176 _3_ RTR  --- 0 AODV 48 [0 ffffffff 1 800] ------- [1:255 -1:255 29 0] [0x2 2 1 [5 0] [4 4]] (REQUEST)
r 5.032764249 _8_ AGT  --- 1 tcp 40 [13a 8 1 800] ------- [1:0 8:0 30 8] [0 0] 1 0
s 5.032764249 _8_ AGT  --- 5 ack 40 [0 0 0 0] ------- [8:0 1:0 32 0] [0 0] 0 0
r 5.032764249 _8_ RTR  --- 5 ack 40 [0 0 0 0] ------- [8:0 1:0 32 0] [0 0] 0 0
s 5.032764249 _8_ RTR  --- 5 ack 40 [0 0 0 0] ------- [8:0 1:0 30 1] [0 0] 0 0
r 5.034017040 _9_ RTR  --- 0 AODV 48 [0 ffffffff 5 800] ------- [5:255 -1:255 29 0] [0x2 2 1 [6 0] [3 4]] (REQUEST)
r 5.034017108 _1_ RTR  --- 0 AODV 48 [0 ffffffff 5 800] ------- [5:255 -1:255 29 0] [0x2 2 1 [6 0] [3 4]] (REQUEST)
r 5.034017466 _4_ RTR  --- 0 AODV 48 [0 ffffffff 5 800] ------- [5:255 -1:255 29 0] [0x2 2 1 [6 0] [3 4]] (REQUEST)
r 5.034017629 _8_ RTR  --- 0 AODV 48 [0 ffffffff 5 800] ------- [5:255 -1:255 29 0] [0x2 2 1 [6 0] [3 4]] (REQUEST)
r 5.034017645 _6_ RTR  --- 0 AODV 48 [0 ffffffff 5 800] ------- [5:255 -1:255 29 0] [0x2 2 1 [6 0] [3 4]] (REQUEST)
r 5.034017699 _3_ RTR  --- 0 AODV 48 [0 ffffffff 5 800] ------- [5:255 -1:255 29 0] [0x2 2 1 [6 0] [3 4]] (REQUEST)
r 5.034017751 _0_ RTR  --- 0 AODV 48 [0 ffffffff 5 800] ------- [5:255 -1:255 29 0] [0x2 2 1 [6 0] [3 4]] (REQUEST)
r 5.034017761 _7_ RTR  --- 0 AODV 48 [0 ffffffff 5 800] ------- [5:255 -1:255 29 0] [0x2 2 1 [6 0] [3 4]] (REQUEST)
s 5.034753735 _6_ RTR  --- 0 AODV 48 [0 ffffffff 1 800] ------- [6:255 -1:255 28 0] [0x2 3 1 [5 0] [4 4]] (REQUEST)
r 5.034995896 _3_ RTR  --- 0 AODV 48 [0 ffffffff 4 800] ------- [4:255 -1:255 28 0] [0x2 3 1 [7 0] [2 4]] (REQUEST)
r 5.034995942 _1_ RTR  --- 0 AODV 48 [0 ffffffff 4 800] ------- [4:255 -1:255 28 0] [0x2 3 1 [7 0] [2 4]] (REQUEST)
r 5.034995993 _5_ RTR  --- 0 AODV 48 [0 ffffffff 4 800] ------- [4:255 -1:255 28 0] [0x2 3 1 [7 0] [2 4]] (REQUEST)
r 5.034996070 _9_ RTR  --- 0 AODV 48 [0 ffffffff 4 800] ------- [4:255 -1:255 28 0] [0x2 3 1 [7 0] [2 4]] (REQUEST)
r 5.035914327 _4_ RTR  --- 0 AODV 48 [0 ffffffff 3 800] ------- [3:255 -1:255 28 0] [0x2 3 1 [9 0] [0 4]] (REQUEST)
r 5.035914517 _1_ RTR  --- 0 AODV 48 [0 ffffffff 3 800] ------- [3:255 -1:255 28 0] [0x2 3 1 [9 0] [0 4]] (REQUEST)
r 5.035914657 _5_ RTR  --- 0 AODV 48 [0 ffffffff 3 800] ------- [3:255 -1:255 28 0] [0x2 3 1 [9 0] [0 4]] (REQUEST)
r 5.035914701 _8_ RTR  --- 0 AODV 48 [0 ffffffff 3 800] ------- [3:255 -1:255 28 0] [0x2 3 1 [9 0] [0 4]] (REQUEST)
r 5.037092757 _3_ RTR  --- 0 AODV 48 [0 ffffffff 4 800] ------- [4:255 -1:255 28 0] [0x2 3 1 [9 0] [0 4]] (REQUEST)
r 5.037092802 _1_ RTR  --- 0 AODV 48 [0 ffffffff 4 800] ------- [4:255 -1:255 28 0] [0x2 3 1 [9 0] [0 4]] (REQUEST)
r 5.037092854 _5_ RTR  --- 0 AODV 48 [0 ffffffff 4 800] ------- [4:255 -1:255 28 0] [0x2 3 1 [9 0] [0 4]] (REQUEST)
r 5.037092931 _9_ RTR  --- 0 AODV 48 [0 ffffffff 4 800] ------- [4:255 -1:255 28 0] [0x2 3 1 [9 0] [0 4]] (REQUEST)
s 5.039213239 _8_ RTR  --- 0 AODV 48 [0 ffffffff 1 800] ------- [8:255 -1:255 28 0] [0x2 3 1 [5 0] [4 4]] (REQUEST)
r 5.039967375 _1_ AGT  --- 5 ack 40 [13a 1 8 800] ------- [8:0 1:0 30 1] [0 0] 1 0
s 5.039967375 _1_ AGT  --- 6 tcp 1040 [0 0 0 0] ------- [1:0 8:0 32 0] [1 0] 0 0
r 5.039967375 _1_ RTR  --- 6 tcp 1040 [0 0 0 0] ------- [1:0 8:0 32 0] [1 0] 0 0
s 5.039967375 _1_ AGT  --- 7 tcp 1040 [0 0 0 0] ------- [1:0 8:0 32 0] [2 0] 0 0
r 5.039967375 _1_ RTR  --- 7 tcp 1040 [0 0 0 0] ------- [1:0 8:0 32 0] [2 0] 0 0
s 5.039967375 _1_ RTR  --- 6 tcp 1040 [0 0 0 0] ------- [1:0 8:0 30 8] [1 0] 0 0
s 5.039967375 _1_ RTR  --- 7 tcp 1040 [0 0 0 0] ------- [1:0 8:0 30 8] [2 0] 0 0
s 5.040653020 _7_ RTR  --- 0 AODV 48 [0 ffffffff 5 800] ------- [7:255 -1:255 28 0] [0x2 3 1 [6 0] [3 4]] (REQUEST)
s 5.041855501 _0_ RTR  --- 0 AODV 48 [0 ffffffff 5 800] ------- [0:255 -1:255 28 0] [0x2 3 1 [6 0] [3 4]] (REQUEST)
r 5.049873069 _8_ AGT  --- 6 tcp 1040 [13a 8 1 800] ------- [1:0 8:0 30 8] [1 0] 1 0
s 5.049873069 _8_ AGT  --- 8 ack 40 [0 0 0 0] ------- [8:0 1:0 32 0] [1 0] 0 0
r 5.049873069 _8_ RTR  --- 8 ack 40 [0 0 0 0] ------- [8:0 1:0 32 0] [1 0] 0 0
s 5.049873069 _8_ RTR  --- 8 ack 40 [0 0 0 0] ------- [8:0 1:0 30 1] [1 0] 0 0
r 5.051185922 _5_ RTR  --- 0 AODV 48 [0 ffffffff 9 800] ------- [9:255 -1:255 28 0] [0x2 3 1 [6 0] [3 4]] (REQUEST)
r 5.051186087 _1_ RTR  --- 0 AODV 48 [0 ffffffff 9 800] ------- [9:255 -1:255 28 0] [0x2 3 1 [6 0] [3 4]] (REQUEST)
r 5.051186424 _4_ RTR  --- 0 AODV 48 [0 ffffffff 9 800] ------- [9:255 -1:255 28 0] [0x2 3 1 [6 0] [3 4]] (REQUEST)
r 5.051186540 _0_ RTR  --- 0 AODV 48 [0 ffffffff 9 800] ------- [9:255 -1:255 28 0] [0x2 3 1 [6 0] [3 4]] (REQUEST)
r 5.051186543 _7_ RTR  --- 0 AODV 48 [0 ffffffff 9 800] ------- [9:255 -1:255 28 0] [0x2 3 1 [6 0] [3 4]] (REQUEST)
r 5.051186571 _8_ RTR  --- 0 AODV 48 [0 ffffffff 9 800] ------- [9:255 -1:255 28 0] [0x2 3 1 [6 0] [3 4]] (REQUEST)
r 5.051186579 _6_ RTR  --- 0 AODV 48 [0 ffffffff 9 800] ------- [9:255 -1:255 28 0] [0x2 3 1 [6 0] [3 4]] (REQUEST)
r 5.051186605 _2_ RTR  --- 0 AODV 48 [0 ffffffff 9 800] ------- [9:255 -1:255 28 0] [0x2 3 1 [6 0] [3 4]] (REQUEST)
s 5.051514528 _2_ RTR  --- 0 AODV 48 [0 ffffffff 9 800] ------- [2:255 -1:255 27 0] [0x2 4 1 [6 0] [3 4]] (REQUEST)
r 5.052124645 _6_ RTR  --- 0 AODV 48 [0 ffffffff 8 800] ------- [8:255 -1:255 28 0] [0x2 3 1 [5 0] [4 4]] (REQUEST)
r 5.052125136 _1_ RTR  --- 0 AODV 48 [0 ffffffff 8 800] ------- [8:255 -1:255 28 0] [0x2 3 1 [5 0] [4 4]] (REQUEST)
r 5.052125261 _5_ RTR  --- 0 AODV 48 [0 ffffffff 8 800] ------- [8:255 -1:255 28 0] [0x2 3 1 [5 0] [4 4]] (REQUEST)
r 5.052125322 _9_ RTR  --- 0 AODV 48 [0 ffffffff 8 800] ------- [8:255 -1:255 28 0] [0x2 3 1 [5 0] [4 4]] (REQUEST)
r 5.052125376 _3_ RTR  --- 0 AODV 48 [0 ffffffff 8 800] ------- [8:255 -1:255 28 0] [0x2 3 1 [5 0] [4 4]] (REQUEST)
r 5.061656830 _8_ AGT  --- 7 tcp 1040 [13a 8 1 800] ------- [1:0 8:0 30 8] [2 0] 1 0
s 5.061656830 _8_ AGT  --- 9 ack 40 [0 0 0 0] ------- [8:0 1:0 32 0] [2 0] 0 0
r 5.061656830 _8_ RTR  --- 9 ack 40 [0 0 0 0] ------- [8:0 1:0 32 0] [2 0] 0 0
s 5.061656830 _8_ RTR  --- 9 ack 40 [0 0 0 0] ------- [8:0 1:0 30 1] [2 0] 0 0
r 5.063582523 _1_ AGT  --- 8 ack 40 [13a 1 8 800] ------- [8:0 1:0 30 1] [1 0] 1 0
s 5.063582523 _1_ AGT  --- 10 tcp 1040 [0 0 0 0] ------- [1:0 8:0 32 0] [3 0] 0 0
r 5.063582523 _1_ RTR  --- 10 tcp 1040 [0 0 0 0] ------- [1:0 8:0 32 0] [3 0] 0 0
s 5.063582523 _1_ AGT  --- 11 tcp 1040 [0 0 0 0] ------- [1:0 8:0 32 0] [4 0] 0 0
r 5.063582523 _1_ RTR  --- 11 tcp 1040 [0 0 0 0] ------- [1:0 8:0 32 0] [4 0] 0 0
s 5.063582523 _1_ RTR  --- 10 tcp 1040 [0 0 0 0] ------- [1:0 8:0 30 8] [3 0] 0 0
s 5.063582523 _1_ RTR  --- 11 tcp 1040 [0 0 0 0] ------- [1:0 8:0 30 8] [4 0] 0 0
r 5.073488217 _8_ AGT  --- 10 tcp 1040 [13a 8 1 800] ------- [1:0 8:0 30 8] [3 0] 1 0
s 5.073488217 _8_ AGT  --- 12 ack 40 [0 0 0 0] ------- [8:0 1:0 32 0] [3 0] 0 0
r 5.073488217 _8_ RTR  --- 12 ack 40 [0 0 0 0] ------- [8:0 1:0 32 0] [3 0] 0 0
s 5.073488217 _8_ RTR  --- 12 ack 40 [0 0 0 0] ------- [8:0 1:0 30 1] [3 0] 0 0
r 5.083314476 _8_ AGT  --- 11 tcp 1040 [13a 8 1 800] ------- [1:0 8:0 30 8] [4 0] 1 0
s 5.083314476 _8_ AGT  --- 13 ack 40 [0 0 0 0] ------- [8:0 1:0 32 0] [4 0] 0 0
r 5.083314476 _8_ RTR  --- 13 ack 40 [0 0 0 0] ------- [8:0 1:0 32 0] [4 0] 0 0
s 5.083314476 _8_ RTR  --- 13 ack 40 [0 0 0 0] ------- [8:0 1:0 30 1] [4 0] 0 0
r 5.085280170 _1_ AGT  --- 9 ack 40 [13a 1 8 800] ------- [8:0 1:0 30 1] [2 0] 1 0
s 5.085280170 _1_ AGT  --- 14 tcp 1040 [0 0 0 0] ------- [1:0 8:0 32 0] [5 0] 0 0
r 5.085280170 _1_ RTR  --- 14 tcp 1040 [0 0 0 0] ------- [1:0 8:0 32 0] [5 0] 0 0
s 5.085280170 _1_ AGT  --- 15 tcp 1040 [0 0 0 0] ------- [1:0 8:0 32 0] [6 0] 0 0
r 5.085280170 _1_ RTR  --- 15 tcp 1040 [0 0 0 0] ------- [1:0 8:0 32 0] [6 0] 0 0
s 5.085280170 _1_ RTR  --- 14 tcp 1040 [0 0 0 0] ------- [1:0 8:0 30 8] [5 0] 0 0
s 5.085280170 _1_ RTR  --- 15 tcp 1040 [0 0 0 0] ------- [1:0 8:0 30 8] [6 0] 0 0
r 5.087316984 _8_ RTR  --- 0 AODV 44 [13a 8 6 800] ------- [6:255 3:255 30 8] [0x4 1 [6 4] 10.000000] (REPLY)
f 5.087316984 _8_ RTR  --- 0 AODV 44 [13a 8 6 800] ------- [6:255 3:255 29 3] [0x4 2 [6 4] 10.000000] (REPLY)
r 5.089282678 _1_ AGT  --- 12 ack 40 [13a 1 8 800] ------- [8:0 1:0 30 1] [3 0] 1 0
s 5.089282678 _1_ AGT  --- 16 tcp 1040 [0 0 0 0] ------- [1:0 8:0 32 0] [7 0] 0 0
r 5.089282678 _1_ RTR  --- 16 tcp 1040 [0 0 0 0] ------- [1:0 8:0 32 0] [7 0] 0 0
s 5.089282678 _1_ AGT  --- 17 tcp 1040 [0 0 0 0] ------- [1:0 8:0 32 0] [8 0] 0 0
r 5.089282678 _1_ RTR  --- 17 tcp 1040 [0 0 0 0] ------- [1:0 8:0 32 0] [8 0] 0 0
s 5.089282678 _1_ RTR  --- 16 tcp 1040 [0 0 0 0] ------- [1:0 8:0 30 8] [7 0] 0 0
s 5.089282678 _1_ RTR  --- 17 tcp 1040 [0 0 0 0] ------- [1:0 8:0 30 8] [8 0] 0 0
r 5.099148372 _8_ AGT  --- 14 tcp 1040 [13a 8 1 800] ------- [1:0 8:0 30 8] [5 0] 1 0
s 5.099148372 _8_ AGT  --- 18 ack 40 [0 0 0 0] ------- [8:0 1:0 32 0] [5 0] 0 0
r 5.099148372 _8_ RTR  --- 18 ack 40 [0 0 0 0] ------- [8:0 1:0 32 0] [5 0] 0 0
s 5.099148372 _8_ RTR  --- 18 ack 40 [0 0 0 0] ------- [8:0 1:0 30 1] [5 0] 0 0
r 5.100600519 _8_ RTR  --- 0 AODV 48 [0 ffffffff 6 800] ------- [6:255 -1:255 28 0] [0x2 3 1 [5 0] [4 4]] (REQUEST)
r 5.100601039 _1_ RTR  --- 0 AODV 48 [0 ffffffff 6 800] ------- [6:255 -1:255 28 0] [0x2 3 1 [5 0] [4 4]] (REQUEST)
r 5.100601151 _5_ RTR  --- 0 AODV 48 [0 ffffffff 6 800] ------- [6:255 -1:255 28 0] [0x2 3 1 [5 0] [4 4]] (REQUEST)
r 5.100601204 _9_ RTR  --- 0 AODV 48 [0 ffffffff 6 800] ------- [6:255 -1:255 28 0] [0x2 3 1 [5 0] [4 4]] (REQUEST)
r 5.110192733 _8_ AGT  --- 15 tcp 1040 [13a 8 1 800] ------- [1:0 8:0 30 8] [6 0] 1 0
s 5.110192733 _8_ AGT  --- 19 ack 40 [0 0 0 0] ------- [8:0 1:0 32 0] [6 0] 0 0
r 5.110192733 _8_ RTR  --- 19 ack 40 [0 0 0 0] ------- [8:0 1:0 32 0] [6 0] 0 0
s 5.110192733 _8_ RTR  --- 19 ack 40 [0 0 0 0] ------- [8:0 1:0 30 1] [6 0] 0 0
r 5.120038992 _8_ AGT  --- 16 tcp 1040 [13a 8 1 800] ------- [1:0 8:0 30 8] [7 0] 1 0
s 5.120038992 _8_ AGT  --- 20 ack 40 [0 0 0 0] ------- [8:0 1:0 32 0] [7 0] 0 0
r 5.120038992 _8_ RTR  --- 20 ack 40 [0 0 0 0] ------- [8:0 1:0 32 0] [7 0] 0 0
s 5.120038992 _8_ RTR  --- 20 ack 40 [0 0 0 0] ------- [8:0 1:0 30 1] [7 0] 0 0
r 5.121311139 _8_ RTR  --- 0 AODV 48 [0 ffffffff 6 800] ------- [6:255 -1:255 29 0] [0x2 2 1 [8 0] [1 4]] (REQUEST)
r 5.121311659 _1_ RTR  --- 0 AODV 48 [0 ffffffff 6 800] ------- [6:255 -1:255 29 0] [0x2 2 1 [8 0] [1 4]] (REQUEST)
r 5.121311771 _5_ RTR  --- 0 AODV 48 [0 ffffffff 6 800] ------- [6:255 -1:255 29 0] [0x2 2 1 [8 0] [1 4]] (REQUEST)
r 5.121311824 _9_ RTR  --- 0 AODV 48 [0 ffffffff 6 800] ------- [6:255 -1:255 29 0] [0x2 2 1 [8 0] [1 4]] (REQUEST)
r 5.122882832 _1_ AGT  --- 13 ack 40 [13a 1 8 800] ------- [8:0 1:0 30 1] [4 0] 1 0
s 5.122882832 _1_ AGT  --- 21 tcp 1040 [0 0 0 0] ------- [1:0 8:0 32 0] [9 0] 0 0
r 5.122882832 _1_ RTR  --- 21 tcp 1040 [0 0 0 0] ------- [1:0 8:0 32 0] [9 0] 0 0
s 5.122882832 _1_ AGT  --- 22 tcp 1040 [0 0 0 0] ------- [1:0 8:0 32 0] [10 0] 0 0
r 5.122882832 _1_ RTR  --- 22 tcp 1040 [0 0 0 0] ------- [1:0 8:0 32 0] [10 0] 0 0
s 5.122882832 _1_ RTR  --- 21 tcp 1040 [0 0 0 0] ------- [1:0 8:0 30 8] [9 0] 0 0
s 5.122882832 _1_ RTR  --- 22 tcp 1040 [0 0 0 0] ------- [1:0 8:0 30 8] [10 0] 0 0
r 5.124873544 _8_ RTR  --- 0 AODV 48 [0 ffffffff 6 800] ------- [6:255 -1:255 28 0] [0x2 3 1 [9 0] [0 4]] (REQUEST)
r 5.124874065 _1_ RTR  --- 0 AODV 48 [0 ffffffff 6 800] ------- [6:255 -1:255 28 0] [0x2 3 1 [9 0] [0 4]] (REQUEST)
r 5.124874177 _5_ RTR  --- 0 AODV 48 [0 ffffffff 6 800] ------- [6:255 -1:255 28 0] [0x2 3 1 [9 0] [0 4]] (REQUEST)
r 5.124874229 _9_ RTR  --- 0 AODV 48 [0 ffffffff 6 800] ------- [6:255 -1:255 28 0] [0x2 3 1 [9 0] [0 4]] (REQUEST)
r 5.126405238 _1_ AGT  --- 18 ack 40 [13a 1 8 800] ------- [8:0 1:0 30 1] [5 0] 1 0
s 5.126405238 _1_ AGT  --- 23 tcp 1040 [0 0 0 0] ------- [1:0 8:0 32 0] [11 0] 0 0
r 5.126405238 _1_ RTR  --- 23 tcp 1040 [0 0 0 0] ------- [1:0 8:0 32 0] [11 0] 0 0
s 5.126405238 _1_ AGT  --- 24 tcp 1040 [0 0 0 0] ------- [1:0 8:0 32 0] [12 0] 0 0
r 5.126405238 _1_ RTR  --- 24 tcp 1040 [0 0 0 0] ------- [1:0 8:0 32 0] [12 0] 0 0
s 5.126405238 _1_ RTR  --- 23 tcp 1040 [0 0 0 0] ------- [1:0 8:0 30 8] [11 0] 0 0
s 5.126405238 _1_ RTR  --- 24 tcp 1040 [0 0 0 0] ------- [1:0 8:0 30 8] [12 0] 0 0
r 5.136310932 _8_ AGT  --- 17 tcp 1040 [13a 8 1 800] ------- [1:0 8:0 30 8] [8 0] 1 0
s 5.136310932 _8_ AGT  --- 25 ack 40 [0 0 0 0] ------- [8:0 1:0 32 0] [8 0] 0 0
r 5.136310932 _8_ RTR  --- 25 ack 40 [0 0 0 0] ------- [8:0 1:0 32 0] [8 0] 0 0
s 5.136310932 _8_ RTR  --- 25 ack 40 [0 0 0 0] ------- [8:0 1:0 30 1] [8 0] 0 0
r 5.146157190 _8_ AGT  --- 21 tcp 1040 [13a 8 1 800] ------- [1:0 8:0 30 8] [9 0] 1 0
s 5.146157190 _8_ AGT  --- 26 ack 40 [0 0 0 0] ------- [8:0 1:0 32 0] [9 0] 0 0
r 5.146157190 _8_ RTR  --- 26 ack 40 [0 0 0 0] ------- [8:0 1:0 32 0] [9 0] 0 0
s 5.146157190 _8_ RTR  --- 26 ack 40 [0 0 0 0] ------- [8:0 1:0 30 1] [9 0] 0 0
r 5.156003449 _8_ AGT  --- 22 tcp 1040 [13a 8 1 800] ------- [1:0 8:0 30 8] [10 0] 1 0
s 5.156003449 _8_ AGT  --- 27 ack 40 [0 0 0 0] ------- [8:0 1:0 32 0] [10 0] 0 0
r 5.156003449 _8_ RTR  --- 27 ack 40 [0 0 0 0] ------- [8:0 1:0 32 0] [10 0] 0 0
s 5.156003449 _8_ RTR  --- 27 ack 40 [0 0 0 0] ------- [8:0 1:0 30 1] [10 0] 0 0
r 5.165889707 _8_ AGT  --- 23 tcp 1040 [13a 8 1 800] ------- [1:0 8:0 30 8] [11 0] 1 0
s 5.165889707 _8_ AGT  --- 28 ack 40 [0 0 0 0] ------- [8:0 1:0 32 0] [11 0] 0 0
r 5.165889707 _8_ RTR  --- 28 ack 40 [0 0 0 0] ------- [8:0 1:0 32 0] [11 0] 0 0
s 5.165889707 _8_ RTR  --- 28 ack 40 [0 0 0 0] ------- [8:0 1:0 30 1] [11 0] 0 0
r 5.167955401 _1_ AGT  --- 19 ack 40 [13a 1 8 800] ------- [8:0 1:0 30 1] [6 0] 1 0
s 5.167955401 _1_ AGT  --- 29 tcp 1040 [0 0 0 0] ------- [1:0 8:0 32 0] [13 0] 0 0
r 5.167955401 _1_ RTR  --- 29 tcp 1040 [0 0 0 0] ------- [1:0 8:0 32 0] [13 0] 0 0
s 5.167955401 _1_ AGT  --- 30 tcp 1040 [0 0 0 0] ------- [1:0 8:0 32 0] [14 0] 0 0
r 5.167955401 _1_ RTR  --- 30 tcp 1040 [0 0 0 0] ------- [1:0 8:0 32 0] [14 0] 0 0
s 5.167955401 _1_ RTR  --- 29 tcp 1040 [0 0 0 0] ------- [1:0 8:0 30 8] [13 0] 0 0
s 5.167955401 _1_ RTR  --- 30 tcp 1040 [0 0 0 0] ------- [1:0 8:0 30 8] [14 0] 0 0
r 5.169801659 _1_ AGT  --- 20 ack 40 [13a 1 8 800] ------- [8:0 1:0 30 1] [7 0] 1 0